   2   2   1   0
  0.2204621E+02  0.3965455E-09  0.3965455E-09  0.3965455E-09  0.5000000E-15
   1.0000000000000000E-004
  CAR 
 GaAs SCF Calculation                    
     20.99388580    -12.62253969  301      4.63739377      1.00000000
    -12.623  0.0000E+00  0.0000E+00
    -12.510  0.0000E+00  0.0000E+00
    -12.398  0.0000E+00  0.0000E+00
    -12.286  0.0000E+00  0.0000E+00
    -12.174  0.0000E+00  0.0000E+00
    -12.062  0.0000E+00  0.0000E+00
    -11.950  0.0000E+00  0.0000E+00
    -11.838  0.0000E+00  0.0000E+00
    -11.726  0.0000E+00  0.0000E+00
    -11.614  0.0000E+00  0.0000E+00
    -11.502  0.0000E+00  0.0000E+00
    -11.390  0.1720E-17  0.1927E-18
    -11.278  0.1469E-06  0.1646E-07
    -11.166  0.6578E-01  0.7371E-02
    -11.054  0.1193E+02  0.1344E+01
    -10.942  0.2321E+02  0.3945E+01
    -10.830  0.4943E+00  0.4000E+01
    -10.718  0.2656E+00  0.4030E+01
    -10.606  0.1140E+02  0.5307E+01
    -10.493  0.3533E+02  0.9266E+01
    -10.381  0.6550E+01  0.1000E+02
    -10.269  0.1498E-02  0.1000E+02
    -10.157  0.3678E-10  0.1000E+02
    -10.045  0.0000E+00  0.1000E+02
     -9.933  0.0000E+00  0.1000E+02
     -9.821  0.0000E+00  0.1000E+02
     -9.709  0.0000E+00  0.1000E+02
     -9.597  0.0000E+00  0.1000E+02
     -9.485  0.0000E+00  0.1000E+02
     -9.373  0.0000E+00  0.1000E+02
     -9.261  0.0000E+00  0.1000E+02
     -9.149  0.0000E+00  0.1000E+02
     -9.037  0.0000E+00  0.1000E+02
     -8.925  0.0000E+00  0.1000E+02
     -8.813  0.0000E+00  0.1000E+02
     -8.701  0.0000E+00  0.1000E+02
     -8.589  0.0000E+00  0.1000E+02
     -8.477  0.4969E-09  0.1000E+02
     -8.364  0.1575E-03  0.1000E+02
     -8.252  0.1704E-01  0.1000E+02
     -8.140  0.1286E+00  0.1002E+02
     -8.028  0.1529E+00  0.1003E+02
     -7.916  0.3007E+00  0.1007E+02
     -7.804  0.1509E+00  0.1008E+02
     -7.692  0.4427E+00  0.1013E+02
     -7.580  0.3707E+00  0.1018E+02
     -7.468  0.2380E+00  0.1020E+02
     -7.356  0.6613E+00  0.1028E+02
     -7.244  0.4372E+00  0.1032E+02
     -7.132  0.5246E+00  0.1038E+02
     -7.020  0.3994E+00  0.1043E+02
     -6.908  0.9673E+00  0.1054E+02
     -6.796  0.7043E+00  0.1062E+02
     -6.684  0.5824E+00  0.1068E+02
     -6.572  0.1076E+01  0.1080E+02
     -6.460  0.1426E+01  0.1096E+02
     -6.347  0.1107E+01  0.1109E+02
     -6.235  0.1336E+01  0.1124E+02
     -6.123  0.1511E+01  0.1140E+02
     -6.011  0.1097E+01  0.1153E+02
     -5.899  0.1663E+01  0.1171E+02
     -5.787  0.1367E+01  0.1187E+02
     -5.675  0.1136E+01  0.1199E+02
     -5.563  0.5084E-01  0.1200E+02
     -5.451  0.8800E-05  0.1200E+02
     -5.339  0.2046E-12  0.1200E+02
     -5.227  0.0000E+00  0.1200E+02
     -5.115  0.0000E+00  0.1200E+02
     -5.003  0.0000E+00  0.1200E+02
     -4.891  0.0000E+00  0.1200E+02
     -4.779  0.0000E+00  0.1200E+02
     -4.667  0.0000E+00  0.1200E+02
     -4.555  0.0000E+00  0.1200E+02
     -4.443  0.0000E+00  0.1200E+02
     -4.330  0.0000E+00  0.1200E+02
     -4.218  0.0000E+00  0.1200E+02
     -4.106  0.0000E+00  0.1200E+02
     -3.994  0.0000E+00  0.1200E+02
     -3.882  0.0000E+00  0.1200E+02
     -3.770  0.0000E+00  0.1200E+02
     -3.658  0.0000E+00  0.1200E+02
     -3.546  0.0000E+00  0.1200E+02
     -3.434  0.0000E+00  0.1200E+02
     -3.322  0.0000E+00  0.1200E+02
     -3.210  0.0000E+00  0.1200E+02
     -3.098  0.0000E+00  0.1200E+02
     -2.986  0.0000E+00  0.1200E+02
     -2.874  0.0000E+00  0.1200E+02
     -2.762  0.0000E+00  0.1200E+02
     -2.650  0.0000E+00  0.1200E+02
     -2.538  0.0000E+00  0.1200E+02
     -2.426  0.1217E-11  0.1200E+02
     -2.314  0.1390E-04  0.1200E+02
     -2.201  0.2513E-01  0.1200E+02
     -2.089  0.3015E+00  0.1204E+02
     -1.977  0.1380E+01  0.1219E+02
     -1.865  0.2236E+01  0.1244E+02
     -1.753  0.2538E+01  0.1273E+02
     -1.641  0.1392E+01  0.1288E+02
     -1.529  0.9488E+00  0.1299E+02
     -1.417  0.8595E+00  0.1308E+02
     -1.305  0.8705E+00  0.1318E+02
     -1.193  0.2718E+00  0.1321E+02
     -1.081  0.1003E+01  0.1333E+02
     -0.969  0.4328E+00  0.1337E+02
     -0.857  0.1261E+00  0.1339E+02
     -0.745  0.6371E+00  0.1346E+02
     -0.633  0.3160E+00  0.1349E+02
     -0.521  0.3576E+00  0.1353E+02
     -0.409  0.3285E+00  0.1357E+02
     -0.297  0.3942E+00  0.1362E+02
     -0.184  0.1725E+00  0.1364E+02
     -0.072  0.2809E+00  0.1367E+02
      0.040  0.2326E+00  0.1369E+02
      0.152  0.6824E-01  0.1370E+02
      0.264  0.1163E+00  0.1371E+02
      0.376  0.5713E+00  0.1378E+02
      0.488  0.1789E+00  0.1380E+02
      0.600  0.4599E+00  0.1385E+02
      0.712  0.1064E+01  0.1397E+02
      0.824  0.9921E+00  0.1408E+02
      0.936  0.1456E+01  0.1424E+02
      1.048  0.1030E+01  0.1436E+02
      1.160  0.1064E+01  0.1448E+02
      1.272  0.1455E+01  0.1464E+02
      1.384  0.1190E+01  0.1477E+02
      1.496  0.1124E+01  0.1490E+02
      1.608  0.1088E+01  0.1502E+02
      1.720  0.1543E+01  0.1519E+02
      1.833  0.1615E+01  0.1538E+02
      1.945  0.1405E+01  0.1553E+02
      2.057  0.2143E+01  0.1577E+02
      2.169  0.1393E+01  0.1593E+02
      2.281  0.1593E+01  0.1611E+02
      2.393  0.1189E+01  0.1624E+02
      2.505  0.1736E+01  0.1644E+02
      2.617  0.1481E+01  0.1660E+02
      2.729  0.1584E+01  0.1678E+02
      2.841  0.9927E+00  0.1689E+02
      2.953  0.1885E+01  0.1710E+02
      3.065  0.8797E+00  0.1720E+02
      3.177  0.1564E+01  0.1737E+02
      3.289  0.1227E+01  0.1751E+02
      3.401  0.7005E+00  0.1759E+02
      3.513  0.9583E+00  0.1770E+02
      3.625  0.5562E+00  0.1776E+02
      3.737  0.6860E+00  0.1784E+02
      3.850  0.4430E+00  0.1789E+02
      3.962  0.2950E+00  0.1792E+02
      4.074  0.3113E+00  0.1796E+02
      4.186  0.1869E+00  0.1798E+02
      4.298  0.1331E+00  0.1799E+02
      4.410  0.6769E-01  0.1800E+02
      4.522  0.1375E-01  0.1800E+02
      4.634  0.5578E-04  0.1800E+02
      4.746  0.2745E-10  0.1800E+02
      4.858  0.0000E+00  0.1800E+02
      4.970  0.0000E+00  0.1800E+02
      5.082  0.0000E+00  0.1800E+02
      5.194  0.0000E+00  0.1800E+02
      5.306  0.0000E+00  0.1800E+02
      5.418  0.0000E+00  0.1800E+02
      5.530  0.0000E+00  0.1800E+02
      5.642  0.0000E+00  0.1800E+02
      5.754  0.0000E+00  0.1800E+02
      5.866  0.5745E-13  0.1800E+02
      5.979  0.1511E-05  0.1800E+02
      6.091  0.3412E-02  0.1800E+02
      6.203  0.3585E-01  0.1800E+02
      6.315  0.1009E+00  0.1802E+02
      6.427  0.1265E+00  0.1803E+02
      6.539  0.2449E+00  0.1806E+02
      6.651  0.4081E+00  0.1810E+02
      6.763  0.6851E+00  0.1818E+02
      6.875  0.8978E+00  0.1828E+02
      6.987  0.1064E+01  0.1840E+02
      7.099  0.1122E+01  0.1853E+02
      7.211  0.1176E+01  0.1866E+02
      7.323  0.1031E+01  0.1877E+02
      7.435  0.2602E+01  0.1906E+02
      7.547  0.1927E+01  0.1928E+02
      7.659  0.1120E+01  0.1941E+02
      7.771  0.2195E+01  0.1965E+02
      7.883  0.6639E+00  0.1973E+02
      7.996  0.6161E+00  0.1980E+02
      8.108  0.6991E+00  0.1987E+02
      8.220  0.1368E+01  0.2003E+02
      8.332  0.1118E+01  0.2015E+02
      8.444  0.5194E+00  0.2021E+02
      8.556  0.1682E+01  0.2040E+02
      8.668  0.9756E+00  0.2051E+02
      8.780  0.1124E+01  0.2063E+02
      8.892  0.9763E+00  0.2074E+02
      9.004  0.5344E+00  0.2080E+02
      9.116  0.1548E+01  0.2098E+02
      9.228  0.1147E+01  0.2111E+02
      9.340  0.1978E+01  0.2133E+02
      9.452  0.2484E+01  0.2161E+02
      9.564  0.1569E+01  0.2178E+02
      9.676  0.2157E+01  0.2202E+02
      9.788  0.9197E+00  0.2213E+02
      9.900  0.8290E+00  0.2222E+02
     10.013  0.7110E+00  0.2230E+02
     10.125  0.4266E+00  0.2235E+02
     10.237  0.1061E+01  0.2246E+02
     10.349  0.3135E+01  0.2282E+02
     10.461  0.1654E+01  0.2300E+02
     10.573  0.2449E+01  0.2328E+02
     10.685  0.1028E+01  0.2339E+02
     10.797  0.4238E+00  0.2344E+02
     10.909  0.8424E+00  0.2353E+02
     11.021  0.8829E+00  0.2363E+02
     11.133  0.1344E+01  0.2378E+02
     11.245  0.2154E+01  0.2402E+02
     11.357  0.8675E+00  0.2412E+02
     11.469  0.6353E+00  0.2419E+02
     11.581  0.6208E+00  0.2426E+02
     11.693  0.3898E+00  0.2431E+02
     11.805  0.9213E+00  0.2441E+02
     11.917  0.6034E+00  0.2448E+02
     12.030  0.9596E+00  0.2458E+02
     12.142  0.1270E+01  0.2473E+02
     12.254  0.8605E+00  0.2482E+02
     12.366  0.8517E+00  0.2492E+02
     12.478  0.1648E+01  0.2510E+02
     12.590  0.1549E+01  0.2528E+02
     12.702  0.5197E+00  0.2533E+02
     12.814  0.7646E+00  0.2542E+02
     12.926  0.1457E+01  0.2558E+02
     13.038  0.1827E+01  0.2579E+02
     13.150  0.1440E+01  0.2595E+02
     13.262  0.1364E+01  0.2610E+02
     13.374  0.6917E+00  0.2618E+02
     13.486  0.6184E+00  0.2625E+02
     13.598  0.3669E+00  0.2629E+02
     13.710  0.1511E+01  0.2646E+02
     13.822  0.1714E+01  0.2665E+02
     13.934  0.1429E+01  0.2681E+02
     14.046  0.9195E+00  0.2691E+02
     14.159  0.1074E+01  0.2704E+02
     14.271  0.1435E+01  0.2720E+02
     14.383  0.1324E+01  0.2734E+02
     14.495  0.1912E+01  0.2756E+02
     14.607  0.1260E+01  0.2770E+02
     14.719  0.9083E+00  0.2780E+02
     14.831  0.8219E+00  0.2789E+02
     14.943  0.1318E+01  0.2804E+02
     15.055  0.1867E+01  0.2825E+02
     15.167  0.1081E+01  0.2837E+02
     15.279  0.1691E+01  0.2856E+02
     15.391  0.2288E+01  0.2882E+02
     15.503  0.9225E+00  0.2892E+02
     15.615  0.1100E+01  0.2904E+02
     15.727  0.1090E+01  0.2917E+02
     15.839  0.7292E+00  0.2925E+02
     15.951  0.1636E+01  0.2943E+02
     16.063  0.9678E+00  0.2954E+02
     16.176  0.7183E+00  0.2962E+02
     16.288  0.6094E+00  0.2969E+02
     16.400  0.8572E+00  0.2978E+02
     16.512  0.1659E+01  0.2997E+02
     16.624  0.1102E+01  0.3009E+02
     16.736  0.1811E+01  0.3030E+02
     16.848  0.1525E+01  0.3047E+02
     16.960  0.1287E+01  0.3061E+02
     17.072  0.1577E+01  0.3079E+02
     17.184  0.1026E+01  0.3090E+02
     17.296  0.1089E+01  0.3103E+02
     17.408  0.8054E+00  0.3112E+02
     17.520  0.5707E+00  0.3118E+02
     17.632  0.1524E+00  0.3120E+02
     17.744  0.5673E+00  0.3126E+02
     17.856  0.1393E+01  0.3142E+02
     17.968  0.1567E+01  0.3159E+02
     18.080  0.3340E+00  0.3163E+02
     18.193  0.2839E+00  0.3166E+02
     18.305  0.1517E+00  0.3168E+02
     18.417  0.5740E+00  0.3174E+02
     18.529  0.1925E+00  0.3176E+02
     18.641  0.1379E+00  0.3178E+02
     18.753  0.4849E+00  0.3183E+02
     18.865  0.5235E+00  0.3189E+02
     18.977  0.1754E+00  0.3191E+02
     19.089  0.1736E+00  0.3193E+02
     19.201  0.2581E+00  0.3196E+02
     19.313  0.2235E+00  0.3199E+02
     19.425  0.2056E-01  0.3199E+02
     19.537  0.1042E+00  0.3200E+02
     19.649  0.2301E-02  0.3200E+02
     19.761  0.9653E-08  0.3200E+02
     19.873  0.0000E+00  0.3200E+02
     19.985  0.0000E+00  0.3200E+02
     20.097  0.0000E+00  0.3200E+02
     20.210  0.0000E+00  0.3200E+02
     20.322  0.0000E+00  0.3200E+02
     20.434  0.0000E+00  0.3200E+02
     20.546  0.0000E+00  0.3200E+02
     20.658  0.0000E+00  0.3200E+02
     20.770  0.0000E+00  0.3200E+02
     20.882  0.0000E+00  0.3200E+02
     20.994  0.0000E+00  0.3200E+02
     20.99388580    -12.62253969  301      4.63739377      1.00000000
    -12.623  0.0000E+00  0.0000E+00  0.0000E+00  0.0000E+00  0.0000E+00  0.0000E+00  0.0000E+00  0.0000E+00  0.0000E+00  0.0000E+00  0.0000E+00  0.0000E+00  0.0000E+00  0.0000E+00  0.0000E+00  0.0000E+00  0.0000E+00  0.0000E+00  0.0000E+00  0.0000E+00  0.0000E+00  0.0000E+00  0.0000E+00  0.0000E+00  0.0000E+00  0.0000E+00  0.0000E+00  0.0000E+00  0.0000E+00  0.0000E+00  0.0000E+00  0.0000E+00  0.0000E+00  0.0000E+00  0.0000E+00  0.0000E+00
    -12.510  0.0000E+00  0.0000E+00  0.0000E+00  0.0000E+00  0.0000E+00  0.0000E+00  0.0000E+00  0.0000E+00  0.0000E+00  0.0000E+00  0.0000E+00  0.0000E+00  0.0000E+00  0.0000E+00  0.0000E+00  0.0000E+00  0.0000E+00  0.0000E+00  0.0000E+00  0.0000E+00  0.0000E+00  0.0000E+00  0.0000E+00  0.0000E+00  0.0000E+00  0.0000E+00  0.0000E+00  0.0000E+00  0.0000E+00  0.0000E+00  0.0000E+00  0.0000E+00  0.0000E+00  0.0000E+00  0.0000E+00  0.0000E+00
    -12.398  0.0000E+00  0.0000E+00  0.0000E+00  0.0000E+00  0.0000E+00  0.0000E+00  0.0000E+00  0.0000E+00  0.0000E+00  0.0000E+00  0.0000E+00  0.0000E+00  0.0000E+00  0.0000E+00  0.0000E+00  0.0000E+00  0.0000E+00  0.0000E+00  0.0000E+00  0.0000E+00  0.0000E+00  0.0000E+00  0.0000E+00  0.0000E+00  0.0000E+00  0.0000E+00  0.0000E+00  0.0000E+00  0.0000E+00  0.0000E+00  0.0000E+00  0.0000E+00  0.0000E+00  0.0000E+00  0.0000E+00  0.0000E+00
    -12.286  0.0000E+00  0.0000E+00  0.0000E+00  0.0000E+00  0.0000E+00  0.0000E+00  0.0000E+00  0.0000E+00  0.0000E+00  0.0000E+00  0.0000E+00  0.0000E+00  0.0000E+00  0.0000E+00  0.0000E+00  0.0000E+00  0.0000E+00  0.0000E+00  0.0000E+00  0.0000E+00  0.0000E+00  0.0000E+00  0.0000E+00  0.0000E+00  0.0000E+00  0.0000E+00  0.0000E+00  0.0000E+00  0.0000E+00  0.0000E+00  0.0000E+00  0.0000E+00  0.0000E+00  0.0000E+00  0.0000E+00  0.0000E+00
    -12.174  0.0000E+00  0.0000E+00  0.0000E+00  0.0000E+00  0.0000E+00  0.0000E+00  0.0000E+00  0.0000E+00  0.0000E+00  0.0000E+00  0.0000E+00  0.0000E+00  0.0000E+00  0.0000E+00  0.0000E+00  0.0000E+00  0.0000E+00  0.0000E+00  0.0000E+00  0.0000E+00  0.0000E+00  0.0000E+00  0.0000E+00  0.0000E+00  0.0000E+00  0.0000E+00  0.0000E+00  0.0000E+00  0.0000E+00  0.0000E+00  0.0000E+00  0.0000E+00  0.0000E+00  0.0000E+00  0.0000E+00  0.0000E+00
    -12.062  0.0000E+00  0.0000E+00  0.0000E+00  0.0000E+00  0.0000E+00  0.0000E+00  0.0000E+00  0.0000E+00  0.0000E+00  0.0000E+00  0.0000E+00  0.0000E+00  0.0000E+00  0.0000E+00  0.0000E+00  0.0000E+00  0.0000E+00  0.0000E+00  0.0000E+00  0.0000E+00  0.0000E+00  0.0000E+00  0.0000E+00  0.0000E+00  0.0000E+00  0.0000E+00  0.0000E+00  0.0000E+00  0.0000E+00  0.0000E+00  0.0000E+00  0.0000E+00  0.0000E+00  0.0000E+00  0.0000E+00  0.0000E+00
    -11.950  0.0000E+00  0.0000E+00  0.0000E+00  0.0000E+00  0.0000E+00  0.0000E+00  0.0000E+00  0.0000E+00  0.0000E+00  0.0000E+00  0.0000E+00  0.0000E+00  0.0000E+00  0.0000E+00  0.0000E+00  0.0000E+00  0.0000E+00  0.0000E+00  0.0000E+00  0.0000E+00  0.0000E+00  0.0000E+00  0.0000E+00  0.0000E+00  0.0000E+00  0.0000E+00  0.0000E+00  0.0000E+00  0.0000E+00  0.0000E+00  0.0000E+00  0.0000E+00  0.0000E+00  0.0000E+00  0.0000E+00  0.0000E+00
    -11.838  0.0000E+00  0.0000E+00  0.0000E+00  0.0000E+00  0.0000E+00  0.0000E+00  0.0000E+00  0.0000E+00  0.0000E+00  0.0000E+00  0.0000E+00  0.0000E+00  0.0000E+00  0.0000E+00  0.0000E+00  0.0000E+00  0.0000E+00  0.0000E+00  0.0000E+00  0.0000E+00  0.0000E+00  0.0000E+00  0.0000E+00  0.0000E+00  0.0000E+00  0.0000E+00  0.0000E+00  0.0000E+00  0.0000E+00  0.0000E+00  0.0000E+00  0.0000E+00  0.0000E+00  0.0000E+00  0.0000E+00  0.0000E+00
    -11.726  0.0000E+00  0.0000E+00  0.0000E+00  0.0000E+00  0.0000E+00  0.0000E+00  0.0000E+00  0.0000E+00  0.0000E+00  0.0000E+00  0.0000E+00  0.0000E+00  0.0000E+00  0.0000E+00  0.0000E+00  0.0000E+00  0.0000E+00  0.0000E+00  0.0000E+00  0.0000E+00  0.0000E+00  0.0000E+00  0.0000E+00  0.0000E+00  0.0000E+00  0.0000E+00  0.0000E+00  0.0000E+00  0.0000E+00  0.0000E+00  0.0000E+00  0.0000E+00  0.0000E+00  0.0000E+00  0.0000E+00  0.0000E+00
    -11.614  0.0000E+00  0.0000E+00  0.0000E+00  0.0000E+00  0.0000E+00  0.0000E+00  0.0000E+00  0.0000E+00  0.0000E+00  0.0000E+00  0.0000E+00  0.0000E+00  0.0000E+00  0.0000E+00  0.0000E+00  0.0000E+00  0.0000E+00  0.0000E+00  0.0000E+00  0.0000E+00  0.0000E+00  0.0000E+00  0.0000E+00  0.0000E+00  0.0000E+00  0.0000E+00  0.0000E+00  0.0000E+00  0.0000E+00  0.0000E+00  0.0000E+00  0.0000E+00  0.0000E+00  0.0000E+00  0.0000E+00  0.0000E+00
    -11.502  0.0000E+00  0.0000E+00  0.0000E+00  0.0000E+00  0.0000E+00  0.0000E+00  0.0000E+00  0.0000E+00  0.0000E+00  0.0000E+00  0.0000E+00  0.0000E+00  0.0000E+00  0.0000E+00  0.0000E+00  0.0000E+00  0.0000E+00  0.0000E+00  0.0000E+00  0.0000E+00  0.0000E+00  0.0000E+00  0.0000E+00  0.0000E+00  0.0000E+00  0.0000E+00  0.0000E+00  0.0000E+00  0.0000E+00  0.0000E+00  0.0000E+00  0.0000E+00  0.0000E+00  0.0000E+00  0.0000E+00  0.0000E+00
    -11.390  0.6291E-23  0.0000E+00 -0.2870E-40 -0.1052E-40  0.5637E-21 -0.3918E-38 -0.1531E-40 -0.1967E-38  0.5637E-21 -0.1567E-37 -0.5173E-38 -0.7653E-41  0.5637E-21 -0.2982E-41  0.1267E-39  0.9249E-38  0.4307E-18 -0.1204E-34  0.1968E-34 -0.4310E-36  0.4307E-18 -0.6821E-35 -0.9765E-36  0.1238E-36  0.1810E-18  0.0000E+00  0.3950E-35 -0.2331E-36  0.4307E-18 -0.8025E-35 -0.2453E-35  0.8863E-35  0.1810E-18 -0.2006E-35  0.6230E-36 -0.1348E-35
    -11.278  0.1577E-10  0.3366E-28  0.1262E-28 -0.4365E-28  0.4412E-10 -0.2693E-27  0.6732E-28 -0.2693E-27  0.4412E-10 -0.5385E-27  0.2019E-27 -0.3366E-28  0.4412E-10  0.0000E+00 -0.2693E-27  0.3574E-27  0.3660E-07 -0.2757E-24  0.6893E-24  0.3447E-25  0.3660E-07 -0.3102E-24  0.0000E+00 -0.3603E-24  0.1584E-07  0.1034E-24  0.1637E-24  0.1077E-25  0.3660E-07  0.6893E-25 -0.1723E-25  0.5170E-25  0.1584E-07 -0.6893E-25 -0.6893E-25 -0.6462E-26
    -11.166  0.1023E-04  0.4412E-22  0.5294E-22  0.0000E+00  0.1832E-04 -0.1059E-21  0.3529E-22 -0.1191E-21  0.1832E-04 -0.2823E-21 -0.8823E-22 -0.1765E-22  0.1832E-04  0.1765E-22  0.2537E-21  0.7610E-22  0.1631E-01 -0.1084E-18  0.1807E-19  0.4518E-20  0.1631E-01 -0.9035E-20 -0.9939E-19 -0.1378E-18  0.7262E-02  0.2711E-19  0.5308E-19 -0.2428E-19  0.1631E-01 -0.7228E-19  0.9035E-20  0.3614E-19  0.7262E-02  0.0000E+00  0.5647E-19 -0.3049E-19
    -11.054  0.1996E-02  0.0000E+00 -0.4235E-20 -0.2823E-21  0.2224E-02 -0.1355E-19 -0.2823E-20 -0.5929E-20  0.2224E-02 -0.2259E-20 -0.5647E-20 -0.5647E-21  0.2224E-02  0.1694E-20  0.2823E-21  0.3247E-20  0.2861E+01 -0.2313E-17  0.1099E-16 -0.7228E-18  0.2861E+01 -0.4626E-17 -0.8674E-17 -0.7806E-17  0.1506E+01 -0.2313E-17 -0.8674E-18 -0.1012E-17  0.2861E+01 -0.2313E-17  0.4626E-17  0.4192E-17  0.1506E+01 -0.1617E-17  0.2891E-18 -0.2168E-18
    -10.942  0.1817E-02  0.2823E-21 -0.4235E-21  0.0000E+00  0.2112E-02 -0.5647E-21 -0.2823E-21  0.1129E-20  0.2112E-02  0.2259E-20  0.9882E-21  0.7059E-22  0.2112E-02  0.1412E-21  0.1500E-20  0.8470E-21  0.5329E+01  0.4626E-17 -0.1041E-16  0.2747E-17  0.5329E+01  0.1041E-16  0.0000E+00  0.8963E-17  0.3399E+01  0.1156E-17 -0.1012E-17 -0.7228E-18  0.5329E+01  0.6939E-17 -0.1156E-17 -0.5493E-17  0.3399E+01 -0.5782E-18  0.1012E-16  0.0000E+00
    -10.830  0.9231E-05 -0.1103E-23 -0.6238E-23 -0.1379E-23  0.2492E-04  0.1765E-22  0.8823E-23  0.4853E-22  0.2492E-04  0.1765E-22  0.6066E-22  0.1985E-22  0.2492E-04  0.0000E+00 -0.1765E-22 -0.1765E-22  0.1108E+00  0.1807E-18 -0.3614E-19  0.1016E-19  0.1108E+00  0.0000E+00  0.7228E-19  0.2891E-18  0.7744E-01  0.3795E-18  0.2620E-18 -0.4518E-19  0.1108E+00  0.2891E-18  0.0000E+00 -0.3795E-18  0.7744E-01  0.2168E-18 -0.1807E-18  0.5421E-19
    -10.718  0.5500E-04 -0.1412E-21 -0.1059E-21 -0.3529E-22  0.8211E-04  0.4235E-21  0.1301E-21  0.3529E-22  0.8211E-04  0.8470E-21  0.5647E-21  0.1985E-22  0.8211E-04  0.3529E-22 -0.1976E-20 -0.2647E-22  0.7794E-01  0.2891E-18 -0.7951E-18  0.2078E-18  0.7794E-01 -0.2891E-18  0.4337E-18  0.8132E-19  0.1102E-01 -0.7228E-19  0.4066E-19 -0.3501E-19  0.7794E-01 -0.4337E-18  0.6505E-18  0.2891E-18  0.1102E-01 -0.1807E-19  0.5421E-19 -0.4518E-19
    -10.606  0.2466E-02 -0.2259E-20 -0.5647E-20  0.3106E-20  0.2414E-02  0.0000E+00 -0.5647E-21  0.1016E-19  0.2414E-02  0.9035E-20  0.2259E-20 -0.3529E-21  0.2414E-02  0.0000E+00 -0.1355E-19  0.4235E-21  0.3269E+01  0.4626E-17 -0.1850E-16 -0.3614E-17  0.3269E+01 -0.3469E-17  0.9252E-17  0.3831E-17  0.6329E+00 -0.1879E-17 -0.5782E-18  0.2168E-18  0.3269E+01  0.2313E-17  0.1735E-17 -0.4337E-17  0.6329E+00 -0.8674E-18  0.1156E-17  0.2168E-18
    -10.493  0.2041E-02  0.0000E+00 -0.8470E-21 -0.2823E-21  0.2135E-02 -0.2259E-20  0.1412E-20 -0.1518E-20  0.2135E-02 -0.2259E-20  0.0000E+00 -0.5647E-21  0.2135E-02  0.2259E-20  0.0000E+00  0.1976E-20  0.5032E+01 -0.9252E-17  0.6361E-17  0.1301E-17  0.5032E+01  0.1156E-17  0.6939E-17  0.3614E-17  0.9830E+01  0.8095E-17  0.1012E-17 -0.5060E-18  0.5032E+01 -0.2313E-17  0.1156E-17  0.1735E-17  0.9830E+01 -0.1156E-17 -0.2891E-17 -0.3813E-17
    -10.381  0.1646E-03 -0.1412E-21 -0.1423E-21 -0.4412E-22  0.2145E-03 -0.5294E-22 -0.1412E-21 -0.3529E-22  0.2145E-03  0.0000E+00  0.8823E-23 -0.1765E-22  0.2145E-03  0.0000E+00  0.5294E-22  0.5073E-22  0.7077E+00  0.0000E+00 -0.2711E-18 -0.4337E-18  0.7077E+00 -0.2313E-17  0.1156E-17  0.9487E-19  0.2169E+01 -0.3469E-17 -0.5349E-17  0.2819E-17  0.7077E+00 -0.2891E-18  0.8674E-18  0.5060E-18  0.2169E+01 -0.5782E-18  0.1735E-17  0.1084E-18
    -10.269  0.1926E-07 -0.2585E-25 -0.1292E-25 -0.2585E-25  0.3784E-07  0.0000E+00  0.1292E-25 -0.3447E-25  0.3784E-07 -0.1723E-25  0.1120E-24 -0.2154E-25  0.3784E-07 -0.3447E-25 -0.9478E-25 -0.2046E-25  0.1630E-03 -0.7059E-22 -0.4279E-21 -0.3529E-22  0.1630E-03 -0.1129E-20  0.7059E-22  0.2118E-21  0.4952E-03 -0.1694E-20 -0.5647E-21 -0.8823E-21  0.1630E-03 -0.1412E-21 -0.5647E-21  0.1412E-21  0.4952E-03 -0.8470E-21 -0.1412E-20  0.1782E-20
    -10.157  0.3207E-15 -0.7704E-33  0.1027E-32  0.0000E+00  0.8627E-15 -0.1027E-32  0.2953E-32  0.6420E-33  0.8627E-15  0.2054E-32 -0.6420E-33  0.3210E-34  0.8627E-15 -0.5136E-33 -0.1926E-32 -0.2054E-32  0.4016E-11  0.6311E-29 -0.1167E-28 -0.3155E-29  0.4016E-11  0.1262E-28  0.8415E-29 -0.1052E-29  0.1214E-10 -0.4207E-28  0.1683E-28 -0.3366E-28  0.4016E-11  0.0000E+00  0.2735E-28 -0.5259E-30  0.1214E-10 -0.3366E-28  0.7994E-28  0.3997E-28
    -10.045  0.0000E+00  0.0000E+00  0.0000E+00  0.0000E+00  0.0000E+00  0.0000E+00  0.0000E+00  0.0000E+00  0.0000E+00  0.0000E+00  0.0000E+00  0.0000E+00  0.0000E+00  0.0000E+00  0.0000E+00  0.0000E+00  0.0000E+00  0.0000E+00  0.0000E+00  0.0000E+00  0.0000E+00  0.0000E+00  0.0000E+00  0.0000E+00  0.0000E+00  0.0000E+00  0.0000E+00  0.0000E+00  0.0000E+00  0.0000E+00  0.0000E+00  0.0000E+00  0.0000E+00  0.0000E+00  0.0000E+00  0.0000E+00
     -9.933  0.0000E+00  0.0000E+00  0.0000E+00  0.0000E+00  0.0000E+00  0.0000E+00  0.0000E+00  0.0000E+00  0.0000E+00  0.0000E+00  0.0000E+00  0.0000E+00  0.0000E+00  0.0000E+00  0.0000E+00  0.0000E+00  0.0000E+00  0.0000E+00  0.0000E+00  0.0000E+00  0.0000E+00  0.0000E+00  0.0000E+00  0.0000E+00  0.0000E+00  0.0000E+00  0.0000E+00  0.0000E+00  0.0000E+00  0.0000E+00  0.0000E+00  0.0000E+00  0.0000E+00  0.0000E+00  0.0000E+00  0.0000E+00
     -9.821  0.0000E+00  0.0000E+00  0.0000E+00  0.0000E+00  0.0000E+00  0.0000E+00  0.0000E+00  0.0000E+00  0.0000E+00  0.0000E+00  0.0000E+00  0.0000E+00  0.0000E+00  0.0000E+00  0.0000E+00  0.0000E+00  0.0000E+00  0.0000E+00  0.0000E+00  0.0000E+00  0.0000E+00  0.0000E+00  0.0000E+00  0.0000E+00  0.0000E+00  0.0000E+00  0.0000E+00  0.0000E+00  0.0000E+00  0.0000E+00  0.0000E+00  0.0000E+00  0.0000E+00  0.0000E+00  0.0000E+00  0.0000E+00
     -9.709  0.0000E+00  0.0000E+00  0.0000E+00  0.0000E+00  0.0000E+00  0.0000E+00  0.0000E+00  0.0000E+00  0.0000E+00  0.0000E+00  0.0000E+00  0.0000E+00  0.0000E+00  0.0000E+00  0.0000E+00  0.0000E+00  0.0000E+00  0.0000E+00  0.0000E+00  0.0000E+00  0.0000E+00  0.0000E+00  0.0000E+00  0.0000E+00  0.0000E+00  0.0000E+00  0.0000E+00  0.0000E+00  0.0000E+00  0.0000E+00  0.0000E+00  0.0000E+00  0.0000E+00  0.0000E+00  0.0000E+00  0.0000E+00
     -9.597  0.0000E+00  0.0000E+00  0.0000E+00  0.0000E+00  0.0000E+00  0.0000E+00  0.0000E+00  0.0000E+00  0.0000E+00  0.0000E+00  0.0000E+00  0.0000E+00  0.0000E+00  0.0000E+00  0.0000E+00  0.0000E+00  0.0000E+00  0.0000E+00  0.0000E+00  0.0000E+00  0.0000E+00  0.0000E+00  0.0000E+00  0.0000E+00  0.0000E+00  0.0000E+00  0.0000E+00  0.0000E+00  0.0000E+00  0.0000E+00  0.0000E+00  0.0000E+00  0.0000E+00  0.0000E+00  0.0000E+00  0.0000E+00
     -9.485  0.0000E+00  0.0000E+00  0.0000E+00  0.0000E+00  0.0000E+00  0.0000E+00  0.0000E+00  0.0000E+00  0.0000E+00  0.0000E+00  0.0000E+00  0.0000E+00  0.0000E+00  0.0000E+00  0.0000E+00  0.0000E+00  0.0000E+00  0.0000E+00  0.0000E+00  0.0000E+00  0.0000E+00  0.0000E+00  0.0000E+00  0.0000E+00  0.0000E+00  0.0000E+00  0.0000E+00  0.0000E+00  0.0000E+00  0.0000E+00  0.0000E+00  0.0000E+00  0.0000E+00  0.0000E+00  0.0000E+00  0.0000E+00
     -9.373  0.0000E+00  0.0000E+00  0.0000E+00  0.0000E+00  0.0000E+00  0.0000E+00  0.0000E+00  0.0000E+00  0.0000E+00  0.0000E+00  0.0000E+00  0.0000E+00  0.0000E+00  0.0000E+00  0.0000E+00  0.0000E+00  0.0000E+00  0.0000E+00  0.0000E+00  0.0000E+00  0.0000E+00  0.0000E+00  0.0000E+00  0.0000E+00  0.0000E+00  0.0000E+00  0.0000E+00  0.0000E+00  0.0000E+00  0.0000E+00  0.0000E+00  0.0000E+00  0.0000E+00  0.0000E+00  0.0000E+00  0.0000E+00
     -9.261  0.0000E+00  0.0000E+00  0.0000E+00  0.0000E+00  0.0000E+00  0.0000E+00  0.0000E+00  0.0000E+00  0.0000E+00  0.0000E+00  0.0000E+00  0.0000E+00  0.0000E+00  0.0000E+00  0.0000E+00  0.0000E+00  0.0000E+00  0.0000E+00  0.0000E+00  0.0000E+00  0.0000E+00  0.0000E+00  0.0000E+00  0.0000E+00  0.0000E+00  0.0000E+00  0.0000E+00  0.0000E+00  0.0000E+00  0.0000E+00  0.0000E+00  0.0000E+00  0.0000E+00  0.0000E+00  0.0000E+00  0.0000E+00
     -9.149  0.0000E+00  0.0000E+00  0.0000E+00  0.0000E+00  0.0000E+00  0.0000E+00  0.0000E+00  0.0000E+00  0.0000E+00  0.0000E+00  0.0000E+00  0.0000E+00  0.0000E+00  0.0000E+00  0.0000E+00  0.0000E+00  0.0000E+00  0.0000E+00  0.0000E+00  0.0000E+00  0.0000E+00  0.0000E+00  0.0000E+00  0.0000E+00  0.0000E+00  0.0000E+00  0.0000E+00  0.0000E+00  0.0000E+00  0.0000E+00  0.0000E+00  0.0000E+00  0.0000E+00  0.0000E+00  0.0000E+00  0.0000E+00
     -9.037  0.0000E+00  0.0000E+00  0.0000E+00  0.0000E+00  0.0000E+00  0.0000E+00  0.0000E+00  0.0000E+00  0.0000E+00  0.0000E+00  0.0000E+00  0.0000E+00  0.0000E+00  0.0000E+00  0.0000E+00  0.0000E+00  0.0000E+00  0.0000E+00  0.0000E+00  0.0000E+00  0.0000E+00  0.0000E+00  0.0000E+00  0.0000E+00  0.0000E+00  0.0000E+00  0.0000E+00  0.0000E+00  0.0000E+00  0.0000E+00  0.0000E+00  0.0000E+00  0.0000E+00  0.0000E+00  0.0000E+00  0.0000E+00
     -8.925  0.0000E+00  0.0000E+00  0.0000E+00  0.0000E+00  0.0000E+00  0.0000E+00  0.0000E+00  0.0000E+00  0.0000E+00  0.0000E+00  0.0000E+00  0.0000E+00  0.0000E+00  0.0000E+00  0.0000E+00  0.0000E+00  0.0000E+00  0.0000E+00  0.0000E+00  0.0000E+00  0.0000E+00  0.0000E+00  0.0000E+00  0.0000E+00  0.0000E+00  0.0000E+00  0.0000E+00  0.0000E+00  0.0000E+00  0.0000E+00  0.0000E+00  0.0000E+00  0.0000E+00  0.0000E+00  0.0000E+00  0.0000E+00
     -8.813  0.0000E+00  0.0000E+00  0.0000E+00  0.0000E+00  0.0000E+00  0.0000E+00  0.0000E+00  0.0000E+00  0.0000E+00  0.0000E+00  0.0000E+00  0.0000E+00  0.0000E+00  0.0000E+00  0.0000E+00  0.0000E+00  0.0000E+00  0.0000E+00  0.0000E+00  0.0000E+00  0.0000E+00  0.0000E+00  0.0000E+00  0.0000E+00  0.0000E+00  0.0000E+00  0.0000E+00  0.0000E+00  0.0000E+00  0.0000E+00  0.0000E+00  0.0000E+00  0.0000E+00  0.0000E+00  0.0000E+00  0.0000E+00
     -8.701  0.0000E+00  0.0000E+00  0.0000E+00  0.0000E+00  0.0000E+00  0.0000E+00  0.0000E+00  0.0000E+00  0.0000E+00  0.0000E+00  0.0000E+00  0.0000E+00  0.0000E+00  0.0000E+00  0.0000E+00  0.0000E+00  0.0000E+00  0.0000E+00  0.0000E+00  0.0000E+00  0.0000E+00  0.0000E+00  0.0000E+00  0.0000E+00  0.0000E+00  0.0000E+00  0.0000E+00  0.0000E+00  0.0000E+00  0.0000E+00  0.0000E+00  0.0000E+00  0.0000E+00  0.0000E+00  0.0000E+00  0.0000E+00
     -8.589  0.0000E+00  0.0000E+00  0.0000E+00  0.0000E+00  0.0000E+00  0.0000E+00  0.0000E+00  0.0000E+00  0.0000E+00  0.0000E+00  0.0000E+00  0.0000E+00  0.0000E+00  0.0000E+00  0.0000E+00  0.0000E+00  0.0000E+00  0.0000E+00  0.0000E+00  0.0000E+00  0.0000E+00  0.0000E+00  0.0000E+00  0.0000E+00  0.0000E+00  0.0000E+00  0.0000E+00  0.0000E+00  0.0000E+00  0.0000E+00  0.0000E+00  0.0000E+00  0.0000E+00  0.0000E+00  0.0000E+00  0.0000E+00
     -8.477  0.7982E-10  0.0000E+00  0.0000E+00  0.2006E-35  0.3135E-18 -0.1056E-38  0.0000E+00 -0.6122E-39  0.3135E-18  0.0000E+00 -0.4745E-39  0.0000E+00  0.3135E-18 -0.3061E-40 -0.1224E-39 -0.2449E-39  0.1126E-16  0.2816E-38 -0.2939E-38 -0.9796E-39  0.1126E-16 -0.1959E-38  0.2204E-38  0.9796E-39  0.1077E-18 -0.4879E-40 -0.1531E-40 -0.1531E-40  0.1126E-16 -0.6122E-39  0.1469E-38  0.2449E-39  0.1077E-18  0.1435E-40  0.1148E-40  0.7653E-41
     -8.364  0.2529E-04  0.0000E+00  0.0000E+00  0.1052E-29  0.1052E-09  0.1284E-33  0.0000E+00  0.0000E+00  0.1052E-09  0.0000E+00  0.0000E+00  0.0000E+00  0.1052E-09 -0.2407E-34 -0.4173E-32  0.1284E-33  0.2884E-09 -0.6574E-31  0.6574E-31  0.5649E-32  0.2884E-09  0.8731E-32 -0.1643E-31  0.1315E-30  0.2630E-11  0.2412E-29  0.8272E-30  0.2630E-30  0.2884E-09  0.8217E-31 -0.7190E-32 -0.9861E-31  0.2630E-11  0.3133E-30 -0.4971E-30 -0.3944E-30
     -8.252  0.2714E-02  0.1379E-24  0.0000E+00  0.9399E-25  0.3404E-05  0.2272E-26 -0.2524E-28 -0.2491E-26  0.3404E-05  0.0000E+00  0.0000E+00  0.1180E-28  0.3404E-05  0.0000E+00  0.2945E-28 -0.1700E-26  0.9185E-05  0.3770E-26 -0.7943E-26  0.3778E-27  0.9185E-05  0.1212E-26  0.1723E-25  0.1723E-25  0.8832E-07  0.3094E-24  0.2094E-24 -0.6893E-25  0.9185E-05  0.2154E-25 -0.9424E-27 -0.1723E-25  0.8832E-07  0.6233E-25 -0.1389E-24 -0.2413E-24
     -8.140  0.2026E-01 -0.7059E-22 -0.4588E-21  0.1357E-21  0.5736E-04 -0.1103E-23  0.0000E+00 -0.1172E-23  0.5736E-04 -0.1103E-23 -0.1792E-23  0.7354E-24  0.5736E-04  0.5515E-24  0.2206E-23  0.1516E-23  0.1526E-03  0.1103E-23 -0.1103E-23  0.6075E-24  0.1526E-03  0.5515E-24  0.1117E-22  0.2482E-23  0.1644E-05  0.1186E-22  0.1241E-22 -0.2206E-23  0.1526E-03  0.3309E-23 -0.1103E-23 -0.3860E-23  0.1644E-05 -0.5515E-24 -0.9237E-23 -0.1103E-22
     -8.028  0.2343E-01  0.0000E+00  0.0000E+00  0.3970E-22  0.1633E-03  0.5515E-24 -0.1103E-23  0.3447E-25  0.1633E-03 -0.5515E-24 -0.5515E-24  0.1211E-23  0.1633E-03 -0.1654E-23 -0.5515E-24 -0.5170E-24  0.4050E-03 -0.7059E-22 -0.3176E-21 -0.1672E-22  0.4050E-03  0.1765E-22  0.2118E-21  0.2404E-21  0.4321E-05  0.1765E-22  0.2647E-22  0.1213E-22  0.4050E-03  0.7059E-22  0.7941E-22  0.4632E-22  0.4321E-05  0.0000E+00 -0.7059E-22 -0.2013E-22