 vasp.6.4.2 20Jul23 (build Oct  5 2023 17:13:13) complex                         
 executed on             LinuxGNU date 2025.03.22  13:14:36
 running   16 mpi-ranks, with    1 threads/rank, on    1 nodes
 distrk:  each k-point on   16 cores,    1 groups
 distr:  one band on NCORE=   1 cores,   16 groups


--------------------------------------------------------------------------------------------------------


 INCAR:
   SYSTEM = GaAs SCF Calculation
   PREC = Accurate
   ENCUT = 500
   ISMEAR = 0
   SIGMA = 0.05
   EDIFF = 1E-7
   ALGO = Normal
   NELM = 100
   NSW = 0
   IBRION = -1
   ISIF = 2
   LCHARG = .TRUE.
   LWAVE = .TRUE.
   LORBIT = 11
   METAGGA = LMBJ
   ISPIN = 2
   LSORBIT = .TRUE.
   LNONCOLLINEAR = .TRUE.
   MAGMOM = 0 0 0 0 0 0

 POTCAR:    PAW Ga_d 06Jul2010                    
 POTCAR:    PAW As 15Mar2012                      
 POTCAR:    PAW Ga_d 06Jul2010                    
   SHA256 =  f701218b5eca31d2a00157e29b9473cf3b810ce591734420b86b86ac70f88535 Ga_d/POTCAR           
   COPYR  = (c) Copyright 06Jul2010 Georg Kresse                                                    
   COPYR  = This file is part of the software VASP. Any use, copying, and all other rights are regul
   COPYR  = If you do not have a valid VASP license, you may not use, copy or distribute this file. 
   VRHFIN =Ga: s2p1                                                                                 
   LEXCH  = CA                                                                                      
   EATOM  =  2154.4592 eV,  158.3483 Ry                                                             
                                                                                                    
   TITEL  = PAW Ga_d 06Jul2010                                                                      
   LULTRA =        F    use ultrasoft PP ?                                                          
   IUNSCR =        1    unscreen: 0-lin 1-nonlin 2-no                                               
   RPACOR =    1.700    partial core radius                                                         
   POMASS =   69.723; ZVAL   =   13.000    mass and valenz                                          
   RCORE  =    2.300    outmost cutoff radius                                                       
   RWIGS  =    2.300; RWIGS  =    1.217    wigner-seitz radius (au A)                               
   ENMAX  =  282.829; ENMIN  =  212.121 eV                                                          
   ICORE  =        3    local potential                                                             
   LCOR   =        T    correct aug charges                                                         
   LPAW   =        T    paw PP                                                                      
   EAUG   =  490.690                                                                                
   DEXC   =    0.000                                                                                
   RMAX   =    2.341    core radius for proj-oper                                                   
   RAUG   =    1.300    factor for augmentation sphere                                              
   RDEP   =    2.413    radius for radial grids                                                     
   RDEPT  =    1.856    core radius for aug-charge                                                  
                                                                                                    
   Atomic configuration                                                                             
    9 entries                                                                                       
     n  l   j            E        occ.                                                              
     1  0  0.50    -10177.9539   2.0000                                                             
     2  0  0.50     -1257.0037   2.0000                                                             
     2  1  1.50     -1096.5304   6.0000                                                             
     3  0  0.50      -147.0449   2.0000                                                             
     3  1  1.50       -98.5146   6.0000                                                             
     3  2  2.50       -19.4350  10.0000                                                             
     4  0  0.50        -9.1573   2.0000                                                             
     4  1  0.50        -2.7399   1.0000                                                             
     4  3  2.50        -2.7416   0.0000                                                             
   Description                                                                                      
     l       E           TYP  RCUT    TYP  RCUT                                                     
     2    -19.4350265     23  2.300                                                                 
     2     -5.4423304     23  2.300                                                                 
     0     -9.1573136     23  2.300                                                                 
     0     68.0291300     23  2.300                                                                 
     1     -2.7399180     23  2.100                                                                 
     1     81.6349560     23  2.300                                                                 
     3      6.8029130     23  2.300                                                                 
  local pseudopotential read in
  partial core-charges read in
  partial kinetic energy density read in
  atomic valenz-charges read in
  non local Contribution for L=           2  read in
    real space projection operators read in
  non local Contribution for L=           2  read in
    real space projection operators read in
  non local Contribution for L=           0  read in
    real space projection operators read in
  non local Contribution for L=           0  read in
    real space projection operators read in
  non local Contribution for L=           1  read in
    real space projection operators read in
  non local Contribution for L=           1  read in
    real space projection operators read in
    PAW grid and wavefunctions read in

   number of l-projection  operators is LMAX  =           6
   number of lm-projection operators is LMMAX =          18

 POTCAR:    PAW As 15Mar2012                      
   SHA256 =  08e68a350ddd2cf910719665deb99220da083362368dcdacb25876096181b8a3 As/POTCAR             
   COPYR  = (c) Copyright 15Mar2012 Georg Kresse                                                    
   COPYR  = This file is part of the software VASP. Any use, copying, and all other rights are regul
   COPYR  = If you do not have a valid VASP license, you may not use, copy or distribute this file. 
   VRHFIN =As: s2p3                                                                                 
   LEXCH  = CA                                                                                      
   EATOM  =   171.6694 eV,   12.6173 Ry                                                             
                                                                                                    
   TITEL  = PAW As 15Mar2012                                                                        
   LULTRA =        F    use ultrasoft PP ?                                                          
   IUNSCR =        1    unscreen: 0-lin 1-nonlin 2-no                                               
   RPACOR =    1.900    partial core radius                                                         
   POMASS =   74.922; ZVAL   =    5.000    mass and valenz                                          
   RCORE  =    2.100    outmost cutoff radius                                                       
   RWIGS  =    2.300; RWIGS  =    1.217    wigner-seitz radius (au A)                               
   ENMAX  =  208.870; ENMIN  =  156.653 eV                                                          
   ICORE  =        3    local potential                                                             
   LCOR   =        T    correct aug charges                                                         
   LPAW   =        T    paw PP                                                                      
   EAUG   =  462.758                                                                                
   DEXC   =    0.000                                                                                
   RMAX   =    2.144    core radius for proj-oper                                                   
   RAUG   =    1.300    factor for augmentation sphere                                              
   RDEP   =    2.140    radius for radial grids                                                     
   RDEPT  =    1.941    core radius for aug-charge                                                  
                                                                                                    
   Atomic configuration                                                                             
   10 entries                                                                                       
     n  l   j            E        occ.                                                              
     1  0  0.50    -11659.1331   2.0000                                                             
     2  0  0.50     -1480.5455   2.0000                                                             
     2  1  1.50     -1300.8395   6.0000                                                             
     3  0  0.50      -189.0128   2.0000                                                             
     3  1  1.50      -133.2331   6.0000                                                             
     3  2  2.50       -40.9396  10.0000                                                             
     4  0  0.50       -14.6732   2.0000                                                             
     4  1  0.50        -5.3484   3.0000                                                             
     4  2  1.50        -5.4423   0.0000                                                             
     4  3  2.50        -5.4423   0.0000                                                             
   Description                                                                                      
     l       E           TYP  RCUT    TYP  RCUT                                                     
     0    -14.6731860     23  2.100                                                                 
     0    -12.1858709     23  2.100                                                                 
     1     -5.3484093     23  2.100                                                                 
     1     27.2116520     23  2.100                                                                 
     2     -5.4423304     23  2.100                                                                 
     3     -1.3605826      7  2.100                                                                 
  local pseudopotential read in
  partial core-charges read in
  partial kinetic energy density read in
  kinetic energy density of atom read in
  atomic valenz-charges read in
  non local Contribution for L=           0  read in
    real space projection operators read in
  non local Contribution for L=           0  read in
    real space projection operators read in
  non local Contribution for L=           1  read in
    real space projection operators read in
  non local Contribution for L=           1  read in
    real space projection operators read in
  non local Contribution for L=           2  read in
    real space projection operators read in
    PAW grid and wavefunctions read in

   number of l-projection  operators is LMAX  =           5
   number of lm-projection operators is LMMAX =          13

  PAW Ga_d 06Jul2010                    :
 energy of atom  1       EATOM=-2154.4592
 kinetic energy error for atom=    0.0027 (will be added to EATOM!!)
  PAW As 15Mar2012                      :
 energy of atom  2       EATOM= -171.6694
 kinetic energy error for atom=    0.0005 (will be added to EATOM!!)


 POSCAR: GaAs
  positions in direct lattice
  No initial velocities read in
 WARNING: For meta-GGA calculations it is strongly recommended to include
     aspherical contributions to the potential inside the PAW spheres (set
     LASPH = .TRUE.)


 METAGGA = LMBJ                                        LMAXTAU =  0    LMIXTAU =  F    CMBJ  =    1.0000

    CMBJA =    0.4880

    CMBJB =    0.5000

    CMBJE =    1.0000

    SMBJ  =    2.0000

    RSMBJ =    7.0000

 exchange correlation table for  LEXCH =        2
   RHO(1)=    0.500       N(1)  =     2000
   RHO(2)=  100.500       N(2)  =     4000



--------------------------------------------------------------------------------------------------------


 ion  position               nearest neighbor table
   1  0.000  0.000  0.000-   2 2.43   2 2.43   2 2.43   2 2.43
   2  0.250  0.250  0.250-   1 2.43   1 2.43   1 2.43   1 2.43

  LATTYP: Found a face centered cubic cell.
 ALAT       =     5.6080000000
  
  Lattice vectors:
  
 A1 = (   2.8040000000,   2.8040000000,   0.0000000000)
 A2 = (   0.0000000000,   2.8040000000,   2.8040000000)
 A3 = (   2.8040000000,   0.0000000000,   2.8040000000)


Analysis of symmetry for initial positions (statically):
=====================================================================
 Subroutine PRICEL returns:
 Original cell was already a primitive cell.
 

 Routine SETGRP: Setting up the symmetry group for a 
 face centered cubic supercell.


 Subroutine GETGRP returns: Found 24 space group operations
 (whereof 24 operations were pure point group operations)
 out of a pool of 48 trial point group operations.


The static configuration has the point symmetry T_d .


Analysis of symmetry for dynamics (positions and initial velocities):
=====================================================================
 Subroutine PRICEL returns:
 Original cell was already a primitive cell.
 

 Routine SETGRP: Setting up the symmetry group for a 
 face centered cubic supercell.


 Subroutine GETGRP returns: Found 24 space group operations
 (whereof 24 operations were pure point group operations)
 out of a pool of 48 trial point group operations.


The dynamic configuration has the point symmetry T_d .


Analysis of structural, dynamic, and magnetic symmetry:
=====================================================================
 Subroutine PRICEL returns:
 Original cell was already a primitive cell.
 

 Routine SETGRP: Setting up the symmetry group for a 
 face centered cubic supercell.


 Subroutine GETGRP returns: Found 24 space group operations
 (whereof 24 operations were pure point group operations)
 out of a pool of 48 trial point group operations.


The overall configuration has the point symmetry T_d .


 Subroutine INISYM returns: Found 24 space group operations
 (whereof 24 operations are pure point group operations),
 and found     1 'primitive' translations


----------------------------------------------------------------------------------------

                                     Primitive cell                                     

  volume of cell :      44.0924

  direct lattice vectors                    reciprocal lattice vectors
     2.804000000  2.804000000  0.000000000     0.178316690  0.178316690 -0.178316690
     0.000000000  2.804000000  2.804000000    -0.178316690  0.178316690  0.178316690
     2.804000000  0.000000000  2.804000000     0.178316690 -0.178316690  0.178316690

  length of vectors
     3.965454829  3.965454829  3.965454829     0.308853568  0.308853568  0.308853568

  position of ions in fractional coordinates (direct lattice)
     0.000000000  0.000000000  0.000000000
     0.250000000  0.250000000  0.250000000

  ion indices of the primitive-cell ions
   primitive index   ion index
                 1           1
                 2           2

----------------------------------------------------------------------------------------



 KPOINTS: Regular 12 x 12 x 12 mesh centered at Ga

Automatic generation of k-mesh.
 Grid dimensions read from file:
 generate k-points for:   12   12   12

 Generating k-lattice:

  Cartesian coordinates                     Fractional coordinates (reciprocal lattice)
     0.014859724  0.014859724 -0.014859724     0.083333333 -0.000000000 -0.000000000
    -0.014859724  0.014859724  0.014859724    -0.000000000  0.083333333  0.000000000
     0.014859724 -0.014859724  0.014859724     0.000000000  0.000000000  0.083333333

  Length of vectors
     0.025737797  0.025737797  0.025737797

  Shift w.r.t. Gamma in fractional coordinates (k-lattice)
     0.000000000  0.000000000  0.000000000

 
 Subroutine IBZKPT returns following result:
 ===========================================
 
 Found    116 irreducible k-points:
 
 Following reciprocal coordinates:
            Coordinates               Weight
  0.000000  0.000000  0.000000      1.000000
  0.083333  0.000000  0.000000      4.000000
 -0.083333  0.000000  0.000000      4.000000
  0.166667  0.000000  0.000000      4.000000
 -0.166667  0.000000  0.000000      4.000000
  0.250000  0.000000  0.000000      4.000000
 -0.250000  0.000000  0.000000      4.000000
  0.333333  0.000000  0.000000      4.000000
 -0.333333  0.000000  0.000000      4.000000
  0.416667  0.000000  0.000000      4.000000
 -0.416667  0.000000  0.000000      4.000000
  0.500000  0.000000  0.000000      4.000000
  0.083333  0.083333  0.000000      6.000000
  0.166667  0.083333  0.000000     12.000000
 -0.166667 -0.083333  0.000000     12.000000
  0.250000  0.083333  0.000000     12.000000
 -0.250000 -0.083333  0.000000     12.000000
  0.333333  0.083333  0.000000     12.000000
 -0.333333 -0.083333  0.000000     12.000000
  0.416667  0.083333  0.000000     12.000000
 -0.416667 -0.083333  0.000000     12.000000
  0.500000  0.083333  0.000000     12.000000
  0.500000 -0.083333  0.000000     12.000000
 -0.416667  0.083333  0.000000     12.000000
  0.416667 -0.083333  0.000000     12.000000
 -0.333333  0.083333  0.000000     12.000000
  0.333333 -0.083333  0.000000     12.000000
 -0.250000  0.083333  0.000000     12.000000
  0.250000 -0.083333  0.000000     12.000000
 -0.166667  0.083333  0.000000     12.000000
  0.166667 -0.083333  0.000000     12.000000
 -0.083333  0.083333  0.000000     12.000000
  0.166667  0.166667  0.000000      6.000000
  0.250000  0.166667  0.000000     12.000000
 -0.250000 -0.166667  0.000000     12.000000
  0.333333  0.166667  0.000000     12.000000
 -0.333333 -0.166667  0.000000     12.000000
  0.416667  0.166667  0.000000     12.000000
 -0.416667 -0.166667  0.000000     12.000000
  0.500000  0.166667  0.000000     12.000000
  0.500000 -0.166667  0.000000     12.000000
 -0.416667  0.166667  0.000000     12.000000
  0.416667 -0.166667  0.000000     12.000000
 -0.333333  0.166667  0.000000     12.000000
  0.333333 -0.166667  0.000000     12.000000
 -0.250000  0.166667  0.000000     12.000000
  0.250000 -0.166667  0.000000     12.000000
 -0.166667  0.166667  0.000000     12.000000
  0.250000  0.250000  0.000000      6.000000
  0.333333  0.250000  0.000000     12.000000
 -0.333333 -0.250000  0.000000     12.000000
  0.416667  0.250000  0.000000     12.000000
 -0.416667 -0.250000  0.000000     12.000000
  0.500000  0.250000  0.000000     12.000000
  0.500000 -0.250000  0.000000     12.000000
 -0.416667  0.250000  0.000000     12.000000
  0.416667 -0.250000  0.000000     12.000000
 -0.333333  0.250000  0.000000     12.000000
  0.333333 -0.250000  0.000000     12.000000
 -0.250000  0.250000  0.000000     12.000000
  0.333333  0.333333  0.000000      6.000000
  0.416667  0.333333  0.000000     12.000000
 -0.416667 -0.333333  0.000000     12.000000
  0.500000  0.333333  0.000000     12.000000
  0.500000 -0.333333  0.000000     12.000000
 -0.416667  0.333333  0.000000     12.000000
  0.416667 -0.333333  0.000000     12.000000
 -0.333333  0.333333  0.000000     12.000000
  0.416667  0.416667  0.000000      6.000000
  0.500000  0.416667  0.000000     12.000000
  0.500000 -0.416667  0.000000     12.000000
 -0.416667  0.416667  0.000000     12.000000
  0.500000  0.500000  0.000000      3.000000
  0.250000  0.166667  0.083333     24.000000
  0.333333  0.166667  0.083333     24.000000
 -0.333333 -0.166667 -0.083333     24.000000
  0.416667  0.166667  0.083333     24.000000
 -0.416667 -0.166667 -0.083333     24.000000
  0.500000  0.166667  0.083333     24.000000
  0.500000 -0.166667 -0.083333     24.000000
 -0.416667  0.166667  0.083333     24.000000
  0.333333  0.250000  0.083333     24.000000
  0.416667  0.250000  0.083333     24.000000
 -0.416667 -0.250000 -0.083333     24.000000
  0.500000  0.250000  0.083333     24.000000
  0.500000 -0.250000 -0.083333     24.000000
 -0.416667  0.250000  0.083333     24.000000
  0.416667 -0.250000 -0.083333     24.000000
 -0.333333  0.250000  0.083333     24.000000
  0.333333 -0.250000 -0.083333     24.000000
 -0.250000  0.250000  0.083333     24.000000
  0.250000 -0.250000 -0.083333     24.000000
 -0.166667  0.250000  0.083333     24.000000
  0.416667  0.333333  0.083333     24.000000
  0.500000  0.333333  0.083333     24.000000
  0.500000 -0.333333 -0.083333     24.000000
 -0.416667  0.333333  0.083333     24.000000
  0.416667 -0.333333 -0.083333     24.000000
 -0.333333  0.333333  0.083333     24.000000
  0.333333 -0.333333 -0.083333     24.000000
 -0.250000  0.333333  0.083333     24.000000
  0.500000  0.416667  0.083333     24.000000
 -0.416667  0.416667  0.083333     24.000000
  0.416667 -0.416667 -0.083333     24.000000
 -0.333333  0.416667  0.083333     24.000000
 -0.416667  0.500000  0.083333     12.000000
  0.500000  0.333333  0.166667     24.000000
 -0.416667  0.333333  0.166667     24.000000
  0.416667 -0.333333 -0.166667     24.000000
 -0.333333  0.333333  0.166667     24.000000
 -0.416667  0.416667  0.166667     24.000000
 -0.333333  0.416667  0.166667     24.000000
  0.333333 -0.416667 -0.166667     24.000000
 -0.250000  0.416667  0.166667     24.000000
 -0.333333  0.500000  0.166667     12.000000
 -0.250000  0.500000  0.250000      6.000000
 
 Following cartesian coordinates:
            Coordinates               Weight
  0.000000  0.000000  0.000000      1.000000
  0.083333  0.083333 -0.083333      4.000000
 -0.083333 -0.083333  0.083333      4.000000
  0.166667  0.166667 -0.166667      4.000000
 -0.166667 -0.166667  0.166667      4.000000
  0.250000  0.250000 -0.250000      4.000000
 -0.250000 -0.250000  0.250000      4.000000
  0.333333  0.333333 -0.333333      4.000000
 -0.333333 -0.333333  0.333333      4.000000
  0.416667  0.416667 -0.416667      4.000000
 -0.416667 -0.416667  0.416667      4.000000
  0.500000  0.500000 -0.500000      4.000000
  0.000000  0.166667  0.000000      6.000000
  0.083333  0.250000 -0.083333     12.000000
 -0.083333 -0.250000  0.083333     12.000000
  0.166667  0.333333 -0.166667     12.000000
 -0.166667 -0.333333  0.166667     12.000000
  0.250000  0.416667 -0.250000     12.000000
 -0.250000 -0.416667  0.250000     12.000000
  0.333333  0.500000 -0.333333     12.000000
 -0.333333 -0.500000  0.333333     12.000000
  0.416667  0.583333 -0.416667     12.000000
  0.583333  0.416667 -0.583333     12.000000
 -0.500000 -0.333333  0.500000     12.000000
  0.500000  0.333333 -0.500000     12.000000
 -0.416667 -0.250000  0.416667     12.000000
  0.416667  0.250000 -0.416667     12.000000
 -0.333333 -0.166667  0.333333     12.000000
  0.333333  0.166667 -0.333333     12.000000
 -0.250000 -0.083333  0.250000     12.000000
  0.250000  0.083333 -0.250000     12.000000
 -0.166667  0.000000  0.166667     12.000000
  0.000000  0.333333  0.000000      6.000000
  0.083333  0.416667 -0.083333     12.000000
 -0.083333 -0.416667  0.083333     12.000000
  0.166667  0.500000 -0.166667     12.000000
 -0.166667 -0.500000  0.166667     12.000000
  0.250000  0.583333 -0.250000     12.000000
 -0.250000 -0.583333  0.250000     12.000000
  0.333333  0.666667 -0.333333     12.000000
  0.666667  0.333333 -0.666667     12.000000
 -0.583333 -0.250000  0.583333     12.000000
  0.583333  0.250000 -0.583333     12.000000
 -0.500000 -0.166667  0.500000     12.000000
  0.500000  0.166667 -0.500000     12.000000
 -0.416667 -0.083333  0.416667     12.000000
  0.416667  0.083333 -0.416667     12.000000
 -0.333333  0.000000  0.333333     12.000000
  0.000000  0.500000  0.000000      6.000000
  0.083333  0.583333 -0.083333     12.000000
 -0.083333 -0.583333  0.083333     12.000000
  0.166667  0.666667 -0.166667     12.000000
 -0.166667 -0.666667  0.166667     12.000000
  0.250000  0.750000 -0.250000     12.000000
  0.750000  0.250000 -0.750000     12.000000
 -0.666667 -0.166667  0.666667     12.000000
  0.666667  0.166667 -0.666667     12.000000
 -0.583333 -0.083333  0.583333     12.000000
  0.583333  0.083333 -0.583333     12.000000
 -0.500000  0.000000  0.500000     12.000000
  0.000000  0.666667  0.000000      6.000000
  0.083333  0.750000 -0.083333     12.000000
 -0.083333 -0.750000  0.083333     12.000000
  0.166667  0.833333 -0.166667     12.000000
  0.833333  0.166667 -0.833333     12.000000
 -0.750000 -0.083333  0.750000     12.000000
  0.750000  0.083333 -0.750000     12.000000
 -0.666667  0.000000  0.666667     12.000000
  0.000000  0.833333  0.000000      6.000000
  0.083333  0.916667 -0.083333     12.000000
  0.916667  0.083333 -0.916667     12.000000
 -0.833333  0.000000  0.833333     12.000000
  0.000000  1.000000  0.000000      3.000000
  0.166667  0.333333  0.000000     24.000000
  0.250000  0.416667 -0.083333     24.000000
 -0.250000 -0.416667  0.083333     24.000000
  0.333333  0.500000 -0.166667     24.000000
 -0.333333 -0.500000  0.166667     24.000000
  0.416667  0.583333 -0.250000     24.000000
  0.583333  0.416667 -0.750000     24.000000
 -0.500000 -0.333333  0.666667     24.000000
  0.166667  0.500000  0.000000     24.000000
  0.250000  0.583333 -0.083333     24.000000
 -0.250000 -0.583333  0.083333     24.000000
  0.333333  0.666667 -0.166667     24.000000
  0.666667  0.333333 -0.833333     24.000000
 -0.583333 -0.250000  0.750000     24.000000
  0.583333  0.250000 -0.750000     24.000000
 -0.500000 -0.166667  0.666667     24.000000
  0.500000  0.166667 -0.666667     24.000000
 -0.416667 -0.083333  0.583333     24.000000
  0.416667  0.083333 -0.583333     24.000000
 -0.333333  0.000000  0.500000     24.000000
  0.166667  0.666667  0.000000     24.000000
  0.250000  0.750000 -0.083333     24.000000
  0.750000  0.250000 -0.916667     24.000000
 -0.666667 -0.166667  0.833333     24.000000
  0.666667  0.166667 -0.833333     24.000000
 -0.583333 -0.083333  0.750000     24.000000
  0.583333  0.083333 -0.750000     24.000000
 -0.500000  0.000000  0.666667     24.000000
  0.166667  0.833333  0.000000     24.000000
 -0.750000 -0.083333  0.916667     24.000000
  0.750000  0.083333 -0.916667     24.000000
 -0.666667 -0.000000  0.833333     24.000000
 -0.833333  0.000000  1.000000     12.000000
  0.333333  0.666667  0.000000     24.000000
 -0.583333 -0.250000  0.916667     24.000000
  0.583333  0.250000 -0.916667     24.000000
 -0.500000 -0.166667  0.833333     24.000000
 -0.666667 -0.166667  1.000000     24.000000
 -0.583333 -0.083333  0.916667     24.000000
  0.583333  0.083333 -0.916667     24.000000
 -0.500000  0.000000  0.833333     24.000000
 -0.666667  0.000000  1.000000     12.000000
 -0.500000  0.000000  1.000000      6.000000
 


--------------------------------------------------------------------------------------------------------




 Dimension of arrays:
   k-points           NKPTS =    116   k-points in BZ     NKDIM =    116   number of bands    NBANDS=     32
   number of dos      NEDOS =    301   number of ions     NIONS =      2
   non local maximal  LDIM  =      6   non local SUM 2l+1 LMDIM =     18
   total plane-waves  NPLWV =  27000
   max r-space proj   IRMAX =      1   max aug-charges    IRDMAX=  25535
   dimension x,y,z NGX =    30 NGY =   30 NGZ =   30
   dimension x,y,z NGXF=    60 NGYF=   60 NGZF=   60
   support grid    NGXF=    60 NGYF=   60 NGZF=   60
   ions per type =               1   1
   NGX,Y,Z   is equivalent  to a cutoff of  12.58, 12.58, 12.58 a.u.
   NGXF,Y,Z  is equivalent  to a cutoff of  25.15, 25.15, 25.15 a.u.

 SYSTEM =  GaAs SCF Calculation                    
 POSCAR =  GaAs                                    

 Startparameter for this run:
   NWRITE =      2    write-flag & timer
   PREC   = accura    normal or accurate (medium, high low for compatibility)
   ISTART =      0    job   : 0-new  1-cont  2-samecut
   ICHARG =      2    charge: 1-file 2-atom 10-const
   ISPIN  =      1    spin polarized calculation?
   LNONCOLLINEAR =      T non collinear calculations
   LSORBIT =      T    spin-orbit coupling
   INIWAV =      1    electr: 0-lowe 1-rand  2-diag
   LASPH  =      F    aspherical Exc in radial PAW
 Electronic Relaxation 1
   ENCUT  =  500.0 eV  36.75 Ry    6.06 a.u.   7.23  7.23  7.23*2*pi/ulx,y,z
   ENINI  =  500.0     initial cutoff
   ENAUG  =  490.7 eV  augmentation charge cutoff
   NELM   =    100;   NELMIN=  2; NELMDL= -5     # of ELM steps 
   EDIFF  = 0.1E-06   stopping-criterion for ELM
   LREAL  =      F    real-space projection
   NLSPLINE    = F    spline interpolate recip. space projectors
   LCOMPAT=      F    compatible to vasp.4.4
   GGA_COMPAT  = T    GGA compatible to vasp.4.4-vasp.4.6
   LMAXPAW     = -100 max onsite density
   LMAXMIX     =    2 max onsite mixed and CHGCAR
   VOSKOWN=      0    Vosko Wilk Nusair interpolation
   ROPT   =    0.00000   0.00000
 Ionic relaxation
   EDIFFG = 0.1E-05   stopping-criterion for IOM
   NSW    =      0    number of steps for IOM
   NBLOCK =      1;   KBLOCK =      1    inner block; outer block 
   IBRION =     -1    ionic relax: 0-MD 1-quasi-New 2-CG
   NFREE  =      0    steps in history (QN), initial steepest desc. (CG)
   ISIF   =      2    stress and relaxation
   IWAVPR =     10    prediction:  0-non 1-charg 2-wave 3-comb
   ISYM   =      2    0-nonsym 1-usesym 2-fastsym
   LCORR  =      T    Harris-Foulkes like correction to forces

   POTIM  = 0.5000    time-step for ionic-motion
   TEIN   =    0.0    initial temperature
   TEBEG  =    0.0;   TEEND  =   0.0 temperature during run
   SMASS  =  -3.00    Nose mass-parameter (am)
   estimated Nose-frequenzy (Omega)   =  0.10E-29 period in steps = 0.13E+47 mass=  -0.359E-27a.u.
   SCALEE = 1.0000    scale energy and forces
   NPACO  =    256;   APACO  = 10.0  distance and # of slots for P.C.
   PSTRESS=    0.0 pullay stress

  Mass of Ions in am
   POMASS =  69.72 74.92
  Ionic Valenz
   ZVAL   =  13.00  5.00
  Atomic Wigner-Seitz radii
   RWIGS  =  -1.00 -1.00
  virtual crystal weights 
   VCA    =   1.00  1.00
   NELECT =      18.0000    total number of electrons
   NUPDOWN=      -1.0000    fix difference up-down

 DOS related values:
   EMIN   =  10.00;   EMAX   =-10.00  energy-range for DOS
   EFERMI =   0.00;   METHOD = LEGACY      
   ISMEAR =     0;   SIGMA  =   0.05  broadening in eV -4-tet -1-fermi 0-gaus

 Electronic relaxation 2 (details)
   IALGO  =     38    algorithm
   LDIAG  =      T    sub-space diagonalisation (order eigenvalues)
   LSUBROT=      F    optimize rotation matrix (better conditioning)
   TURBO    =      0    0=normal 1=particle mesh
   IRESTART =      0    0=no restart 2=restart with 2 vectors
   NREBOOT  =      0    no. of reboots
   NMIN     =      0    reboot dimension
   EREF     =   0.00    reference energy to select bands
   IMIX   =      4    mixing-type and parameters
     AMIX     =   0.40;   BMIX     =  1.00
     AMIX_MAG =   1.60;   BMIX_MAG =  1.00
     AMIN     =   0.10
     WC   =   100.;   INIMIX=   1;  MIXPRE=   1;  MAXMIX= -45

 Intra band minimization:
   WEIMIN = 0.0000     energy-eigenvalue tresh-hold
   EBREAK =  0.78E-09  absolut break condition
   DEPER  =   0.30     relativ break condition  

   TIME   =   0.40     timestep for ELM

  volume/ion in A,a.u.               =      22.05       148.78
  Fermi-wavevector in a.u.,A,eV,Ry     =   1.214444  2.294967 20.066897  1.474875
  Thomas-Fermi vector in A             =   2.349864

 Write flags
   LWAVE        =      T    write WAVECAR
   LDOWNSAMPLE  =      F    k-point downsampling of WAVECAR
   LCHARG       =      T    write CHGCAR
   LVTOT        =      F    write LOCPOT, total local potential
   LVHAR        =      F    write LOCPOT, Hartree potential only
   LELF         =      F    write electronic localiz. function (ELF)
   LORBIT       =     11    0 simple, 1 ext, 2 COOP (PROOUT), +10 PAW based schemes


 Dipole corrections
   LMONO  =      F    monopole corrections only (constant potential shift)
   LDIPOL =      F    correct potential (dipole corrections)
   IDIPOL =      0    1-x, 2-y, 3-z, 4-all directions 
   EPSILON=  1.0000000 bulk dielectric constant

 Exchange correlation treatment:
   GGA     =    --    GGA type
   LEXCH   =     2    internal setting for exchange type
   LIBXC   =     F    Libxc                    
   VOSKOWN =     0    Vosko Wilk Nusair interpolation
   LHFCALC =     F    Hartree Fock is set to
   LHFONE  =     F    Hartree Fock one center treatment
   AEXX    =    0.0000 exact exchange contribution

 Linear response parameters
   LEPSILON=     F    determine dielectric tensor
   LRPA    =     F    only Hartree local field effects (RPA)
   LNABLA  =     F    use nabla operator in PAW spheres
   LVEL    =     F    velocity operator in full k-point grid
   CSHIFT  =0.1000    complex shift for real part using Kramers Kronig
   OMEGAMAX=  -1.0    maximum frequency
   DEG_THRESHOLD= 0.2000000E-02 threshold for treating states as degnerate
   RTIME   =   -0.100 relaxation time in fs
  (WPLASMAI=    0.000 imaginary part of plasma frequency in eV, 0.658/RTIME)
   DFIELD  = 0.0000000 0.0000000 0.0000000 field for delta impulse in time

  Optional k-point grid parameters
   LKPOINTS_OPT  =     F    use optional k-point grid
   KPOINTS_OPT_MODE=     1    mode for optional k-point grid

 Orbital magnetization related:
   ORBITALMAG=     F  switch on orbital magnetization
   LCHIMAG   =     F  perturbation theory with respect to B field
   DQ        =  0.001000  dq finite difference perturbation B field
   LLRAUG    =     F  two centre corrections for induced B field
   LBONE     =     F  B-component reconstruction in AE one-centre
   LVGVCALC  =     T  calculate vGv susceptibility
   LVGVAPPL  =     F  apply vGv susceptibility instead of pGv for G=0

 Random number generation:
   RANDOM_GENERATOR = DEFAULT
   PCG_SEED         = not used


--------------------------------------------------------------------------------------------------------


 Static calculation
 charge density and potential will be updated during run
 non collinear spin polarized calculation
 Variant of blocked Davidson
 Davidson routine will perform the subspace rotation
 perform sub-space diagonalisation
    after iterative eigenvector-optimisation
 modified Broyden-mixing scheme, WC =      100.0
 initial mixing is a Kerker type mixing with AMIX =  0.4000 and BMIX =      1.0000
 Hartree-type preconditioning will be used
 using additional bands           23
 reciprocal scheme for non local part
 use partial core corrections
 calculate Harris-corrections to forces   (improved forces if not selfconsistent)
 use of overlap-Matrix (Vanderbilt PP)
 Gauss-broadening in eV      SIGMA  =   0.05


--------------------------------------------------------------------------------------------------------


  energy-cutoff  :      500.00
  volume of cell :       44.09
      direct lattice vectors                 reciprocal lattice vectors
     2.804000000  2.804000000  0.000000000     0.178316690  0.178316690 -0.178316690
     0.000000000  2.804000000  2.804000000    -0.178316690  0.178316690  0.178316690
     2.804000000  0.000000000  2.804000000     0.178316690 -0.178316690  0.178316690

  length of vectors
     3.965454829  3.965454829  3.965454829     0.308853568  0.308853568  0.308853568



 k-points in units of 2pi/SCALE and weight: Regular 12 x 12 x 12 mesh centered at Ga
   0.00000000  0.00000000  0.00000000       0.001
   0.08333333  0.08333333 -0.08333333       0.002
  -0.08333333 -0.08333333  0.08333333       0.002
   0.16666667  0.16666667 -0.16666667       0.002
  -0.16666667 -0.16666667  0.16666667       0.002
   0.25000000  0.25000000 -0.25000000       0.002
  -0.25000000 -0.25000000  0.25000000       0.002
   0.33333333  0.33333333 -0.33333333       0.002
  -0.33333333 -0.33333333  0.33333333       0.002
   0.41666667  0.41666667 -0.41666667       0.002
  -0.41666667 -0.41666667  0.41666667       0.002
   0.50000000  0.50000000 -0.50000000       0.002
   0.00000000  0.16666667  0.00000000       0.003
   0.08333333  0.25000000 -0.08333333       0.007
  -0.08333333 -0.25000000  0.08333333       0.007
   0.16666667  0.33333333 -0.16666667       0.007
  -0.16666667 -0.33333333  0.16666667       0.007
   0.25000000  0.41666667 -0.25000000       0.007
  -0.25000000 -0.41666667  0.25000000       0.007
   0.33333333  0.50000000 -0.33333333       0.007
  -0.33333333 -0.50000000  0.33333333       0.007
   0.41666667  0.58333333 -0.41666667       0.007
   0.58333333  0.41666667 -0.58333333       0.007
  -0.50000000 -0.33333333  0.50000000       0.007
   0.50000000  0.33333333 -0.50000000       0.007
  -0.41666667 -0.25000000  0.41666667       0.007
   0.41666667  0.25000000 -0.41666667       0.007
  -0.33333333 -0.16666667  0.33333333       0.007
   0.33333333  0.16666667 -0.33333333       0.007
  -0.25000000 -0.08333333  0.25000000       0.007
   0.25000000  0.08333333 -0.25000000       0.007
  -0.16666667  0.00000000  0.16666667       0.007
   0.00000000  0.33333333  0.00000000       0.003
   0.08333333  0.41666667 -0.08333333       0.007
  -0.08333333 -0.41666667  0.08333333       0.007
   0.16666667  0.50000000 -0.16666667       0.007
  -0.16666667 -0.50000000  0.16666667       0.007
   0.25000000  0.58333333 -0.25000000       0.007
  -0.25000000 -0.58333333  0.25000000       0.007
   0.33333333  0.66666667 -0.33333333       0.007
   0.66666667  0.33333333 -0.66666667       0.007
  -0.58333333 -0.25000000  0.58333333       0.007
   0.58333333  0.25000000 -0.58333333       0.007
  -0.50000000 -0.16666667  0.50000000       0.007
   0.50000000  0.16666667 -0.50000000       0.007
  -0.41666667 -0.08333333  0.41666667       0.007
   0.41666667  0.08333333 -0.41666667       0.007
  -0.33333333  0.00000000  0.33333333       0.007
   0.00000000  0.50000000  0.00000000       0.003
   0.08333333  0.58333333 -0.08333333       0.007
  -0.08333333 -0.58333333  0.08333333       0.007
   0.16666667  0.66666667 -0.16666667       0.007
  -0.16666667 -0.66666667  0.16666667       0.007
   0.25000000  0.75000000 -0.25000000       0.007
   0.75000000  0.25000000 -0.75000000       0.007
  -0.66666667 -0.16666667  0.66666667       0.007
   0.66666667  0.16666667 -0.66666667       0.007
  -0.58333333 -0.08333333  0.58333333       0.007
   0.58333333  0.08333333 -0.58333333       0.007
  -0.50000000  0.00000000  0.50000000       0.007
   0.00000000  0.66666667  0.00000000       0.003
   0.08333333  0.75000000 -0.08333333       0.007
  -0.08333333 -0.75000000  0.08333333       0.007
   0.16666667  0.83333333 -0.16666667       0.007
   0.83333333  0.16666667 -0.83333333       0.007
  -0.75000000 -0.08333333  0.75000000       0.007
   0.75000000  0.08333333 -0.75000000       0.007
  -0.66666667  0.00000000  0.66666667       0.007
   0.00000000  0.83333333  0.00000000       0.003
   0.08333333  0.91666667 -0.08333333       0.007
   0.91666667  0.08333333 -0.91666667       0.007
  -0.83333333  0.00000000  0.83333333       0.007
   0.00000000  1.00000000  0.00000000       0.002
   0.16666667  0.33333333  0.00000000       0.014
   0.25000000  0.41666667 -0.08333333       0.014
  -0.25000000 -0.41666667  0.08333333       0.014
   0.33333333  0.50000000 -0.16666667       0.014
  -0.33333333 -0.50000000  0.16666667       0.014
   0.41666667  0.58333333 -0.25000000       0.014
   0.58333333  0.41666667 -0.75000000       0.014
  -0.50000000 -0.33333333  0.66666667       0.014
   0.16666667  0.50000000  0.00000000       0.014
   0.25000000  0.58333333 -0.08333333       0.014
  -0.25000000 -0.58333333  0.08333333       0.014
   0.33333333  0.66666667 -0.16666667       0.014
   0.66666667  0.33333333 -0.83333333       0.014
  -0.58333333 -0.25000000  0.75000000       0.014
   0.58333333  0.25000000 -0.75000000       0.014
  -0.50000000 -0.16666667  0.66666667       0.014
   0.50000000  0.16666667 -0.66666667       0.014
  -0.41666667 -0.08333333  0.58333333       0.014
   0.41666667  0.08333333 -0.58333333       0.014
  -0.33333333  0.00000000  0.50000000       0.014
   0.16666667  0.66666667  0.00000000       0.014
   0.25000000  0.75000000 -0.08333333       0.014
   0.75000000  0.25000000 -0.91666667       0.014
  -0.66666667 -0.16666667  0.83333333       0.014
   0.66666667  0.16666667 -0.83333333       0.014
  -0.58333333 -0.08333333  0.75000000       0.014
   0.58333333  0.08333333 -0.75000000       0.014
  -0.50000000  0.00000000  0.66666667       0.014
   0.16666667  0.83333333  0.00000000       0.014
  -0.75000000 -0.08333333  0.91666667       0.014
   0.75000000  0.08333333 -0.91666667       0.014
  -0.66666667 -0.00000000  0.83333333       0.014
  -0.83333333  0.00000000  1.00000000       0.007
   0.33333333  0.66666667  0.00000000       0.014
  -0.58333333 -0.25000000  0.91666667       0.014
   0.58333333  0.25000000 -0.91666667       0.014
  -0.50000000 -0.16666667  0.83333333       0.014
  -0.66666667 -0.16666667  1.00000000       0.014
  -0.58333333 -0.08333333  0.91666667       0.014
   0.58333333  0.08333333 -0.91666667       0.014
  -0.50000000  0.00000000  0.83333333       0.014
  -0.66666667  0.00000000  1.00000000       0.007
  -0.50000000  0.00000000  1.00000000       0.003

 k-points in reciprocal lattice and weights: Regular 12 x 12 x 12 mesh centered at Ga
   0.00000000  0.00000000  0.00000000       0.001
   0.08333333  0.00000000  0.00000000       0.002
  -0.08333333  0.00000000  0.00000000       0.002
   0.16666667  0.00000000  0.00000000       0.002
  -0.16666667  0.00000000  0.00000000       0.002
   0.25000000  0.00000000  0.00000000       0.002
  -0.25000000  0.00000000  0.00000000       0.002
   0.33333333  0.00000000  0.00000000       0.002
  -0.33333333  0.00000000  0.00000000       0.002
   0.41666667  0.00000000  0.00000000       0.002
  -0.41666667  0.00000000  0.00000000       0.002
   0.50000000  0.00000000  0.00000000       0.002
   0.08333333  0.08333333  0.00000000       0.003
   0.16666667  0.08333333  0.00000000       0.007
  -0.16666667 -0.08333333  0.00000000       0.007
   0.25000000  0.08333333  0.00000000       0.007
  -0.25000000 -0.08333333  0.00000000       0.007
   0.33333333  0.08333333  0.00000000       0.007
  -0.33333333 -0.08333333  0.00000000       0.007
   0.41666667  0.08333333  0.00000000       0.007
  -0.41666667 -0.08333333  0.00000000       0.007
   0.50000000  0.08333333  0.00000000       0.007
   0.50000000 -0.08333333  0.00000000       0.007
  -0.41666667  0.08333333  0.00000000       0.007
   0.41666667 -0.08333333  0.00000000       0.007
  -0.33333333  0.08333333  0.00000000       0.007
   0.33333333 -0.08333333  0.00000000       0.007
  -0.25000000  0.08333333  0.00000000       0.007
   0.25000000 -0.08333333  0.00000000       0.007
  -0.16666667  0.08333333  0.00000000       0.007
   0.16666667 -0.08333333  0.00000000       0.007
  -0.08333333  0.08333333  0.00000000       0.007
   0.16666667  0.16666667  0.00000000       0.003
   0.25000000  0.16666667  0.00000000       0.007
  -0.25000000 -0.16666667  0.00000000       0.007
   0.33333333  0.16666667  0.00000000       0.007
  -0.33333333 -0.16666667  0.00000000       0.007
   0.41666667  0.16666667  0.00000000       0.007
  -0.41666667 -0.16666667  0.00000000       0.007
   0.50000000  0.16666667  0.00000000       0.007
   0.50000000 -0.16666667  0.00000000       0.007
  -0.41666667  0.16666667  0.00000000       0.007
   0.41666667 -0.16666667  0.00000000       0.007
  -0.33333333  0.16666667  0.00000000       0.007
   0.33333333 -0.16666667  0.00000000       0.007
  -0.25000000  0.16666667  0.00000000       0.007
   0.25000000 -0.16666667  0.00000000       0.007
  -0.16666667  0.16666667  0.00000000       0.007
   0.25000000  0.25000000  0.00000000       0.003
   0.33333333  0.25000000  0.00000000       0.007
  -0.33333333 -0.25000000  0.00000000       0.007
   0.41666667  0.25000000  0.00000000       0.007
  -0.41666667 -0.25000000  0.00000000       0.007
   0.50000000  0.25000000  0.00000000       0.007
   0.50000000 -0.25000000  0.00000000       0.007
  -0.41666667  0.25000000  0.00000000       0.007
   0.41666667 -0.25000000  0.00000000       0.007
  -0.33333333  0.25000000  0.00000000       0.007
   0.33333333 -0.25000000  0.00000000       0.007
  -0.25000000  0.25000000  0.00000000       0.007
   0.33333333  0.33333333  0.00000000       0.003
   0.41666667  0.33333333  0.00000000       0.007
  -0.41666667 -0.33333333  0.00000000       0.007
   0.50000000  0.33333333  0.00000000       0.007
   0.50000000 -0.33333333  0.00000000       0.007
  -0.41666667  0.33333333  0.00000000       0.007
   0.41666667 -0.33333333  0.00000000       0.007
  -0.33333333  0.33333333  0.00000000       0.007
   0.41666667  0.41666667  0.00000000       0.003
   0.50000000  0.41666667  0.00000000       0.007
   0.50000000 -0.41666667  0.00000000       0.007
  -0.41666667  0.41666667  0.00000000       0.007
   0.50000000  0.50000000  0.00000000       0.002
   0.25000000  0.16666667  0.08333333       0.014
   0.33333333  0.16666667  0.08333333       0.014
  -0.33333333 -0.16666667 -0.08333333       0.014
   0.41666667  0.16666667  0.08333333       0.014
  -0.41666667 -0.16666667 -0.08333333       0.014
   0.50000000  0.16666667  0.08333333       0.014
   0.50000000 -0.16666667 -0.08333333       0.014
  -0.41666667  0.16666667  0.08333333       0.014
   0.33333333  0.25000000  0.08333333       0.014
   0.41666667  0.25000000  0.08333333       0.014
  -0.41666667 -0.25000000 -0.08333333       0.014
   0.50000000  0.25000000  0.08333333       0.014
   0.50000000 -0.25000000 -0.08333333       0.014
  -0.41666667  0.25000000  0.08333333       0.014
   0.41666667 -0.25000000 -0.08333333       0.014
  -0.33333333  0.25000000  0.08333333       0.014
   0.33333333 -0.25000000 -0.08333333       0.014
  -0.25000000  0.25000000  0.08333333       0.014
   0.25000000 -0.25000000 -0.08333333       0.014
  -0.16666667  0.25000000  0.08333333       0.014
   0.41666667  0.33333333  0.08333333       0.014
   0.50000000  0.33333333  0.08333333       0.014
   0.50000000 -0.33333333 -0.08333333       0.014
  -0.41666667  0.33333333  0.08333333       0.014
   0.41666667 -0.33333333 -0.08333333       0.014
  -0.33333333  0.33333333  0.08333333       0.014
   0.33333333 -0.33333333 -0.08333333       0.014
  -0.25000000  0.33333333  0.08333333       0.014
   0.50000000  0.41666667  0.08333333       0.014
  -0.41666667  0.41666667  0.08333333       0.014
   0.41666667 -0.41666667 -0.08333333       0.014
  -0.33333333  0.41666667  0.08333333       0.014
  -0.41666667  0.50000000  0.08333333       0.007
   0.50000000  0.33333333  0.16666667       0.014
  -0.41666667  0.33333333  0.16666667       0.014
   0.41666667 -0.33333333 -0.16666667       0.014
  -0.33333333  0.33333333  0.16666667       0.014
  -0.41666667  0.41666667  0.16666667       0.014
  -0.33333333  0.41666667  0.16666667       0.014
   0.33333333 -0.41666667 -0.16666667       0.014
  -0.25000000  0.41666667  0.16666667       0.014
  -0.33333333  0.50000000  0.16666667       0.007
  -0.25000000  0.50000000  0.25000000       0.003

 position of ions in fractional coordinates (direct lattice) 
   0.00000000  0.00000000  0.00000000
   0.25000000  0.25000000  0.25000000

 position of ions in cartesian coordinates  (Angst):
   0.00000000  0.00000000  0.00000000
   1.40200000  1.40200000  1.40200000

 Euler angles ALPHA=     0.0000000  BETA=     0.0000000

 transformation matrix from SAXIS to cartesian coordinates
 ---------------------------------------------------------
     1.0000000 m_x    -0.0000000 m_y     0.0000000 m_z
     0.0000000 m_x     1.0000000 m_y     0.0000000 m_z
    -0.0000000 m_x     0.0000000 m_y     1.0000000 m_z

 transformation matrix from cartesian coordinates to SAXIS
 ---------------------------------------------------------
     1.0000000 m_x     0.0000000 m_y    -0.0000000 m_z
    -0.0000000 m_x     1.0000000 m_y     0.0000000 m_z
     0.0000000 m_x     0.0000000 m_y     1.0000000 m_z




--------------------------------------------------------------------------------------------------------


 k-point   1 :   0.0000 0.0000 0.0000  plane waves:    2278
 k-point   2 :   0.0833 0.0000 0.0000  plane waves:    2236
 k-point   3 :  -0.0833 0.0000 0.0000  plane waves:    2236
 k-point   4 :   0.1667 0.0000 0.0000  plane waves:    2244
 k-point   5 :  -0.1667 0.0000 0.0000  plane waves:    2244
 k-point   6 :   0.2500 0.0000 0.0000  plane waves:    2232
 k-point   7 :  -0.2500 0.0000 0.0000  plane waves:    2232
 k-point   8 :   0.3333 0.0000 0.0000  plane waves:    2262
 k-point   9 :  -0.3333 0.0000 0.0000  plane waves:    2262
 k-point  10 :   0.4167 0.0000 0.0000  plane waves:    2250
 k-point  11 :  -0.4167 0.0000 0.0000  plane waves:    2250
 k-point  12 :   0.5000 0.0000 0.0000  plane waves:    2208
 k-point  13 :   0.0833 0.0833 0.0000  plane waves:    2230
 k-point  14 :   0.1667 0.0833 0.0000  plane waves:    2250
 k-point  15 :  -0.1667-0.0833 0.0000  plane waves:    2250
 k-point  16 :   0.2500 0.0833 0.0000  plane waves:    2238
 k-point  17 :  -0.2500-0.0833 0.0000  plane waves:    2238
 k-point  18 :   0.3333 0.0833 0.0000  plane waves:    2232
 k-point  19 :  -0.3333-0.0833 0.0000  plane waves:    2232
 k-point  20 :   0.4167 0.0833 0.0000  plane waves:    2252
 k-point  21 :  -0.4167-0.0833 0.0000  plane waves:    2252
 k-point  22 :   0.5000 0.0833 0.0000  plane waves:    2246
 k-point  23 :   0.5000-0.0833 0.0000  plane waves:    2246
 k-point  24 :  -0.4167 0.0833 0.0000  plane waves:    2246
 k-point  25 :   0.4167-0.0833 0.0000  plane waves:    2246
 k-point  26 :  -0.3333 0.0833 0.0000  plane waves:    2248
 k-point  27 :   0.3333-0.0833 0.0000  plane waves:    2248
 k-point  28 :  -0.2500 0.0833 0.0000  plane waves:    2232
 k-point  29 :   0.2500-0.0833 0.0000  plane waves:    2232
 k-point  30 :  -0.1667 0.0833 0.0000  plane waves:    2246
 k-point  31 :   0.1667-0.0833 0.0000  plane waves:    2246
 k-point  32 :  -0.0833 0.0833 0.0000  plane waves:    2250
 k-point  33 :   0.1667 0.1667 0.0000  plane waves:    2260
 k-point  34 :   0.2500 0.1667 0.0000  plane waves:    2238
 k-point  35 :  -0.2500-0.1667 0.0000  plane waves:    2238
 k-point  36 :   0.3333 0.1667 0.0000  plane waves:    2230
 k-point  37 :  -0.3333-0.1667 0.0000  plane waves:    2230
 k-point  38 :   0.4167 0.1667 0.0000  plane waves:    2234
 k-point  39 :  -0.4167-0.1667 0.0000  plane waves:    2234
 k-point  40 :   0.5000 0.1667 0.0000  plane waves:    2230
 k-point  41 :   0.5000-0.1667 0.0000  plane waves:    2230
 k-point  42 :  -0.4167 0.1667 0.0000  plane waves:    2240
 k-point  43 :   0.4167-0.1667 0.0000  plane waves:    2240
 k-point  44 :  -0.3333 0.1667 0.0000  plane waves:    2252
 k-point  45 :   0.3333-0.1667 0.0000  plane waves:    2252
 k-point  46 :  -0.2500 0.1667 0.0000  plane waves:    2238
 k-point  47 :   0.2500-0.1667 0.0000  plane waves:    2238
 k-point  48 :  -0.1667 0.1667 0.0000  plane waves:    2222
 k-point  49 :   0.2500 0.2500 0.0000  plane waves:    2236
 k-point  50 :   0.3333 0.2500 0.0000  plane waves:    2228
 k-point  51 :  -0.3333-0.2500 0.0000  plane waves:    2228
 k-point  52 :   0.4167 0.2500 0.0000  plane waves:    2230
 k-point  53 :  -0.4167-0.2500 0.0000  plane waves:    2230
 k-point  54 :   0.5000 0.2500 0.0000  plane waves:    2232
 k-point  55 :   0.5000-0.2500 0.0000  plane waves:    2232
 k-point  56 :  -0.4167 0.2500 0.0000  plane waves:    2248
 k-point  57 :   0.4167-0.2500 0.0000  plane waves:    2248
 k-point  58 :  -0.3333 0.2500 0.0000  plane waves:    2248
 k-point  59 :   0.3333-0.2500 0.0000  plane waves:    2248
 k-point  60 :  -0.2500 0.2500 0.0000  plane waves:    2250
 k-point  61 :   0.3333 0.3333 0.0000  plane waves:    2236
 k-point  62 :   0.4167 0.3333 0.0000  plane waves:    2222
 k-point  63 :  -0.4167-0.3333 0.0000  plane waves:    2222
 k-point  64 :   0.5000 0.3333 0.0000  plane waves:    2228
 k-point  65 :   0.5000-0.3333 0.0000  plane waves:    2228
 k-point  66 :  -0.4167 0.3333 0.0000  plane waves:    2256
 k-point  67 :   0.4167-0.3333 0.0000  plane waves:    2256
 k-point  68 :  -0.3333 0.3333 0.0000  plane waves:    2250
 k-point  69 :   0.4167 0.4167 0.0000  plane waves:    2220
 k-point  70 :   0.5000 0.4167 0.0000  plane waves:    2250
 k-point  71 :   0.5000-0.4167 0.0000  plane waves:    2250
 k-point  72 :  -0.4167 0.4167 0.0000  plane waves:    2260
 k-point  73 :   0.5000 0.5000 0.0000  plane waves:    2212
 k-point  74 :   0.2500 0.1667 0.0833  plane waves:    2244
 k-point  75 :   0.3333 0.1667 0.0833  plane waves:    2228
 k-point  76 :  -0.3333-0.1667-0.0833  plane waves:    2228
 k-point  77 :   0.4167 0.1667 0.0833  plane waves:    2236
 k-point  78 :  -0.4167-0.1667-0.0833  plane waves:    2236
 k-point  79 :   0.5000 0.1667 0.0833  plane waves:    2240
 k-point  80 :   0.5000-0.1667-0.0833  plane waves:    2240
 k-point  81 :  -0.4167 0.1667 0.0833  plane waves:    2240
 k-point  82 :   0.3333 0.2500 0.0833  plane waves:    2222
 k-point  83 :   0.4167 0.2500 0.0833  plane waves:    2228
 k-point  84 :  -0.4167-0.2500-0.0833  plane waves:    2228
 k-point  85 :   0.5000 0.2500 0.0833  plane waves:    2232
 k-point  86 :   0.5000-0.2500-0.0833  plane waves:    2232
 k-point  87 :  -0.4167 0.2500 0.0833  plane waves:    2244
 k-point  88 :   0.4167-0.2500-0.0833  plane waves:    2244
 k-point  89 :  -0.3333 0.2500 0.0833  plane waves:    2246
 k-point  90 :   0.3333-0.2500-0.0833  plane waves:    2246
 k-point  91 :  -0.2500 0.2500 0.0833  plane waves:    2244
 k-point  92 :   0.2500-0.2500-0.0833  plane waves:    2244
 k-point  93 :  -0.1667 0.2500 0.0833  plane waves:    2232
 k-point  94 :   0.4167 0.3333 0.0833  plane waves:    2248
 k-point  95 :   0.5000 0.3333 0.0833  plane waves:    2232
 k-point  96 :   0.5000-0.3333-0.0833  plane waves:    2232
 k-point  97 :  -0.4167 0.3333 0.0833  plane waves:    2240
 k-point  98 :   0.4167-0.3333-0.0833  plane waves:    2240
 k-point  99 :  -0.3333 0.3333 0.0833  plane waves:    2238
 k-point 100 :   0.3333-0.3333-0.0833  plane waves:    2238
 k-point 101 :  -0.2500 0.3333 0.0833  plane waves:    2228
 k-point 102 :   0.5000 0.4167 0.0833  plane waves:    2226
 k-point 103 :  -0.4167 0.4167 0.0833  plane waves:    2240
 k-point 104 :   0.4167-0.4167-0.0833  plane waves:    2240
 k-point 105 :  -0.3333 0.4167 0.0833  plane waves:    2260
 k-point 106 :  -0.4167 0.5000 0.0833  plane waves:    2260
 k-point 107 :   0.5000 0.3333 0.1667  plane waves:    2218
 k-point 108 :  -0.4167 0.3333 0.1667  plane waves:    2238
 k-point 109 :   0.4167-0.3333-0.1667  plane waves:    2238
 k-point 110 :  -0.3333 0.3333 0.1667  plane waves:    2240
 k-point 111 :  -0.4167 0.4167 0.1667  plane waves:    2228
 k-point 112 :  -0.3333 0.4167 0.1667  plane waves:    2242
 k-point 113 :   0.3333-0.4167-0.1667  plane waves:    2242
 k-point 114 :  -0.2500 0.4167 0.1667  plane waves:    2238
 k-point 115 :  -0.3333 0.5000 0.1667  plane waves:    2252
 k-point 116 :  -0.2500 0.5000 0.2500  plane waves:    2248

 maximum and minimum number of plane-waves per node :      2278     2208

 maximum number of plane-waves:      2278
 maximum index in each direction: 
   IXMAX=    7   IYMAX=    7   IZMAX=    7
   IXMIN=   -7   IYMIN=   -7   IZMIN=   -7


 serial   3D FFT for wavefunctions
 parallel 3D FFT for charge:
    minimum data exchange during FFTs selected (reduces bandwidth)


 total amount of memory used by VASP MPI-rank0    88159. kBytes
=======================================================================

   base      :      30000. kBytes
   nonl-proj :      38522. kBytes
   fftplans  :       1162. kBytes
   grid      :       9561. kBytes
   one-center:        124. kBytes
   wavefun   :       8790. kBytes

     INWAV:  cpu time      0.0000: real time      0.0000
 Broyden mixing: mesh for mixing (old mesh)
   NGX = 15   NGY = 15   NGZ = 15
  (NGX  = 60   NGY  = 60   NGZ  = 60)
  gives a total of   3375 points

 initial charge density was supplied:
 charge density of overlapping atoms calculated
 number of electron      18.0000000 magnetization       0.0000000      0.0000000      0.0000000
 keeping initial charge density in first step


--------------------------------------------------------------------------------------------------------


 Maximum index for augmentation-charges         1682 (set IRDMAX)


--------------------------------------------------------------------------------------------------------


 First call to EWALD:  gamma=   0.502
 Maximum number of real-space cells 3x 3x 3
 Maximum number of reciprocal cells 3x 3x 3

    FEWALD:  cpu time      0.0007: real time      0.0007


--------------------------------------- Ionic step        1  -------------------------------------------




--------------------------------------- Iteration      1(   1)  ---------------------------------------


    POTLOK:  cpu time      0.0576: real time      0.0577
    CMBJ_AVG_PW =    1.1484

    VACRAT =    0.0000

      1 CMBJ_AUG(I) =    1.1482

      2 CMBJ_AUG(I) =    1.1485

    SETDIJ:  cpu time      0.0227: real time      0.0227
     EDDAV:  cpu time      6.3731: real time      6.3801
       DOS:  cpu time      0.0009: real time      0.0009
    --------------------------------------------
      LOOP:  cpu time      6.4543: real time      6.4613

 eigenvalue-minimisations  :  7520
 total energy-change (2. order) : 0.4303779E+02  (-0.8518027E+03)
 number of electron      18.0000000 magnetization       0.0000000      0.0000000      0.0000000
 augmentation part       18.0000000 magnetization       0.0000000      0.0000000      0.0000000

 Free energy of the ion-electron system (eV)
  ---------------------------------------------------
  alpha Z        PSCENC =        58.48741906
  Ewald energy   TEWEN  =     -1275.79203374
  -Hartree energ DENC   =      -720.17149427
  -exchange      EXHF   =         0.00000000
  -V(xc)+E(xc)   XCENC  =       152.79156116
  PAW double counting   =      1661.44954149    -2079.66642956
  entropy T*S    EENTRO =        -0.00115068
  eigenvalues    EBANDS =       -80.18503972
  atomic energy  EATOM  =      2326.12541554
  Solvation  Ediel_sol  =         0.00000000
  ---------------------------------------------------
  free energy    TOTEN  =        43.03778928 eV

  energy without entropy =       43.03893996  energy(sigma->0) =       43.03836462


--------------------------------------------------------------------------------------------------------




--------------------------------------- Iteration      1(   2)  ---------------------------------------


     EDDAV:  cpu time      7.0144: real time      7.0243
       DOS:  cpu time      0.0006: real time      0.0006
    --------------------------------------------
      LOOP:  cpu time      7.0151: real time      7.0250

 eigenvalue-minimisations  :  8816
 total energy-change (2. order) :-0.8518616E+02  (-0.8139920E+02)
 number of electron      18.0000000 magnetization       0.0000000      0.0000000      0.0000000
 augmentation part       18.0000000 magnetization       0.0000000      0.0000000      0.0000000

 Free energy of the ion-electron system (eV)
  ---------------------------------------------------
  alpha Z        PSCENC =        58.48741906
  Ewald energy   TEWEN  =     -1275.79203374
  -Hartree energ DENC   =      -720.17149427
  -exchange      EXHF   =         0.00000000
  -V(xc)+E(xc)   XCENC  =       152.79156116
  PAW double counting   =      1661.44954149    -2079.66642956
  entropy T*S    EENTRO =        -0.00000000
  eigenvalues    EBANDS =      -165.37235332
  atomic energy  EATOM  =      2326.12541554
  Solvation  Ediel_sol  =         0.00000000
  ---------------------------------------------------
  free energy    TOTEN  =       -42.14837365 eV

  energy without entropy =      -42.14837365  energy(sigma->0) =      -42.14837365


--------------------------------------------------------------------------------------------------------




--------------------------------------- Iteration      1(   3)  ---------------------------------------


     EDDAV:  cpu time      7.2967: real time      7.3050
       DOS:  cpu time      0.0006: real time      0.0006
    --------------------------------------------
      LOOP:  cpu time      7.2973: real time      7.3056

 eigenvalue-minimisations  :  9168
 total energy-change (2. order) :-0.6040450E+01  (-0.6024823E+01)
 number of electron      18.0000000 magnetization       0.0000000      0.0000000      0.0000000
 augmentation part       18.0000000 magnetization       0.0000000      0.0000000      0.0000000

 Free energy of the ion-electron system (eV)
  ---------------------------------------------------
  alpha Z        PSCENC =        58.48741906
  Ewald energy   TEWEN  =     -1275.79203374
  -Hartree energ DENC   =      -720.17149427
  -exchange      EXHF   =         0.00000000
  -V(xc)+E(xc)   XCENC  =       152.79156116
  PAW double counting   =      1661.44954149    -2079.66642956
  entropy T*S    EENTRO =        -0.00000000
  eigenvalues    EBANDS =      -171.41280332
  atomic energy  EATOM  =      2326.12541554
  Solvation  Ediel_sol  =         0.00000000
  ---------------------------------------------------
  free energy    TOTEN  =       -48.18882365 eV

  energy without entropy =      -48.18882365  energy(sigma->0) =      -48.18882365


--------------------------------------------------------------------------------------------------------




--------------------------------------- Iteration      1(   4)  ---------------------------------------


     EDDAV:  cpu time      7.3273: real time      7.3358
       DOS:  cpu time      0.0006: real time      0.0006
    --------------------------------------------
      LOOP:  cpu time      7.3279: real time      7.3364

 eigenvalue-minimisations  :  9120
 total energy-change (2. order) :-0.8125496E-01  (-0.8124774E-01)
 number of electron      18.0000000 magnetization       0.0000000      0.0000000      0.0000000
 augmentation part       18.0000000 magnetization       0.0000000      0.0000000      0.0000000

 Free energy of the ion-electron system (eV)
  ---------------------------------------------------
  alpha Z        PSCENC =        58.48741906
  Ewald energy   TEWEN  =     -1275.79203374
  -Hartree energ DENC   =      -720.17149427
  -exchange      EXHF   =         0.00000000
  -V(xc)+E(xc)   XCENC  =       152.79156116
  PAW double counting   =      1661.44954149    -2079.66642956
  entropy T*S    EENTRO =        -0.00000000
  eigenvalues    EBANDS =      -171.49405828
  atomic energy  EATOM  =      2326.12541554
  Solvation  Ediel_sol  =         0.00000000
  ---------------------------------------------------
  free energy    TOTEN  =       -48.27007860 eV

  energy without entropy =      -48.27007860  energy(sigma->0) =      -48.27007860


--------------------------------------------------------------------------------------------------------




--------------------------------------- Iteration      1(   5)  ---------------------------------------


     EDDAV:  cpu time      7.4242: real time      7.4324
       DOS:  cpu time      0.0006: real time      0.0006



 total charge

# of ion       s       p       d       tot
------------------------------------------
    1        0.745   0.708   9.986  11.438
    2        1.231   1.710   0.038   2.979
--------------------------------------------------
tot          1.976   2.417  10.024  14.418



 magnetization (x)

# of ion       s       p       d       tot
------------------------------------------
    1       -0.001   0.001  -0.000  -0.000
    2        0.000  -0.001  -0.000  -0.000
--------------------------------------------------
tot         -0.001   0.000  -0.000  -0.001



 magnetization (y)

# of ion       s       p       d       tot
------------------------------------------
    1        0.000  -0.000   0.000   0.000
    2       -0.000   0.000  -0.000   0.000
--------------------------------------------------
tot          0.000   0.000   0.000   0.000



 magnetization (z)

# of ion       s       p       d       tot
------------------------------------------
    1       -0.000   0.000  -0.000  -0.000
    2        0.000  -0.000   0.000  -0.000
--------------------------------------------------
tot         -0.000   0.000  -0.000  -0.000

    CHARGE:  cpu time      1.7263: real time      1.7278
    MIXING:  cpu time      0.0007: real time      0.0007
    --------------------------------------------
      LOOP:  cpu time      9.1518: real time      9.1616

 eigenvalue-minimisations  :  9264
 total energy-change (2. order) :-0.1171797E-02  (-0.1171775E-02)
 number of electron      18.0000012 magnetization       0.0000000     -0.0000000      0.0000000
 augmentation part        7.6495943 magnetization       0.0000000      0.0000000      0.0000000

 Broyden mixing:
  rms(total) = 0.58168E+00    rms(broyden)= 0.58168E+00
  rms(prec ) = 0.97363E+00
  weight for this iteration     100.00

 Free energy of the ion-electron system (eV)
  ---------------------------------------------------
  alpha Z        PSCENC =        58.48741906
  Ewald energy   TEWEN  =     -1275.79203374
  -Hartree energ DENC   =      -720.17149427
  -exchange      EXHF   =         0.00000000
  -V(xc)+E(xc)   XCENC  =       152.79156116
  PAW double counting   =      1661.44954149    -2079.66642956
  entropy T*S    EENTRO =        -0.00000000
  eigenvalues    EBANDS =      -171.49523007
  atomic energy  EATOM  =      2326.12541554
  Solvation  Ediel_sol  =         0.00000000
  ---------------------------------------------------
  free energy    TOTEN  =       -48.27125040 eV

  energy without entropy =      -48.27125040  energy(sigma->0) =      -48.27125040


--------------------------------------------------------------------------------------------------------




--------------------------------------- Iteration      1(   6)  ---------------------------------------


    POTLOK:  cpu time      0.0526: real time      0.0546
    CMBJ_AVG_PW =    1.1607

    VACRAT =    0.0000

      1 CMBJ_AUG(I) =    1.1606

      2 CMBJ_AUG(I) =    1.1609

    SETDIJ:  cpu time      0.0180: real time      0.0181
     EDDAV:  cpu time      8.3339: real time      8.3424
       DOS:  cpu time      0.0006: real time      0.0006
    CHARGE:  cpu time      1.7179: real time      1.7190
    MIXING:  cpu time      0.0014: real time      0.0014
    --------------------------------------------
      LOOP:  cpu time     10.1244: real time     10.1360

 eigenvalue-minimisations  : 11232
 total energy-change (2. order) : 0.1015150E+01  (-0.2778779E+00)
 number of electron      18.0000012 magnetization      -0.0000000     -0.0000000     -0.0000000
 augmentation part        7.7232137 magnetization      -0.0000000     -0.0000000     -0.0000000

 Broyden mixing:
  rms(total) = 0.26012E+00    rms(broyden)= 0.26012E+00
  rms(prec ) = 0.59278E+00
  weight for this iteration     100.00

 eigenvalues of (default mixing * dielectric matrix)
  average eigenvalue GAMMA=   1.3795
  1.3795

 Free energy of the ion-electron system (eV)
  ---------------------------------------------------
  alpha Z        PSCENC =        58.48741906
  Ewald energy   TEWEN  =     -1275.79203374
  -Hartree energ DENC   =      -714.48762182
  -exchange      EXHF   =         0.00000000
  -V(xc)+E(xc)   XCENC  =       147.35820481
  PAW double counting   =      1754.20815481    -2206.73565856
  entropy T*S    EENTRO =        -0.00000000
  eigenvalues    EBANDS =      -136.41998047
  atomic energy  EATOM  =      2326.12541554
  Solvation  Ediel_sol  =         0.00000000
  ---------------------------------------------------
  free energy    TOTEN  =       -47.25610038 eV

  energy without entropy =      -47.25610038  energy(sigma->0) =      -47.25610038


--------------------------------------------------------------------------------------------------------




--------------------------------------- Iteration      1(   7)  ---------------------------------------


    POTLOK:  cpu time      0.0550: real time      0.0550
    CMBJ_AVG_PW =    1.1797

    VACRAT =    0.0000

      1 CMBJ_AUG(I) =    1.1795

      2 CMBJ_AUG(I) =    1.1798

    SETDIJ:  cpu time      0.0180: real time      0.0180
     EDDAV:  cpu time      7.4639: real time      7.4710
       DOS:  cpu time      0.0006: real time      0.0006
    CHARGE:  cpu time      1.7177: real time      1.7191
    MIXING:  cpu time      0.0009: real time      0.0009
    --------------------------------------------
      LOOP:  cpu time      9.2561: real time      9.2646

 eigenvalue-minimisations  :  9632
 total energy-change (2. order) : 0.3388214E+00  (-0.4373981E-01)
 number of electron      18.0000012 magnetization       0.0000000      0.0000000      0.0000000
 augmentation part        7.7100873 magnetization       0.0000000      0.0000000      0.0000000

 Broyden mixing:
  rms(total) = 0.18484E+00    rms(broyden)= 0.18484E+00
  rms(prec ) = 0.30451E+00
  weight for this iteration     100.00

 eigenvalues of (default mixing * dielectric matrix)
  average eigenvalue GAMMA=   1.6773
  0.7392  2.6153

 Free energy of the ion-electron system (eV)
  ---------------------------------------------------
  alpha Z        PSCENC =        58.48741906
  Ewald energy   TEWEN  =     -1275.79203374
  -Hartree energ DENC   =      -719.27170481
  -exchange      EXHF   =         0.00000000
  -V(xc)+E(xc)   XCENC  =       151.05962247
  PAW double counting   =      1838.76686184    -2301.69196740
  entropy T*S    EENTRO =        -0.00000000
  eigenvalues    EBANDS =      -124.60089199
  atomic energy  EATOM  =      2326.12541554
  Solvation  Ediel_sol  =         0.00000000
  ---------------------------------------------------
  free energy    TOTEN  =       -46.91727903 eV

  energy without entropy =      -46.91727903  energy(sigma->0) =      -46.91727903


--------------------------------------------------------------------------------------------------------




--------------------------------------- Iteration      1(   8)  ---------------------------------------


    POTLOK:  cpu time      0.0516: real time      0.0517
    CMBJ_AVG_PW =    1.2069

    VACRAT =    0.0000

      1 CMBJ_AUG(I) =    1.2067

      2 CMBJ_AUG(I) =    1.2070

    SETDIJ:  cpu time      0.0179: real time      0.0179
     EDDAV:  cpu time      7.5798: real time      7.5876
       DOS:  cpu time      0.0006: real time      0.0006
    CHARGE:  cpu time      1.7259: real time      1.7274
    MIXING:  cpu time      0.0009: real time      0.0009
    --------------------------------------------
      LOOP:  cpu time      9.3767: real time      9.3861

 eigenvalue-minimisations  :  9600
 total energy-change (2. order) : 0.1940429E+00  (-0.1687263E-01)
 number of electron      18.0000012 magnetization       0.0000000     -0.0000000     -0.0000000
 augmentation part        7.7181304 magnetization       0.0000000     -0.0000000     -0.0000000

 Broyden mixing:
  rms(total) = 0.81585E-01    rms(broyden)= 0.81585E-01
  rms(prec ) = 0.13444E+00
  weight for this iteration     100.00

 eigenvalues of (default mixing * dielectric matrix)
  average eigenvalue GAMMA=   1.5330
  2.9389  0.8301  0.8301

 Free energy of the ion-electron system (eV)
  ---------------------------------------------------
  alpha Z        PSCENC =        58.48741906
  Ewald energy   TEWEN  =     -1275.79203374
  -Hartree energ DENC   =      -722.24403370
  -exchange      EXHF   =         0.00000000
  -V(xc)+E(xc)   XCENC  =       155.22784775
  PAW double counting   =      1948.11739923    -2420.84605634
  entropy T*S    EENTRO =        -0.00000000
  eigenvalues    EBANDS =      -115.79919393
  atomic energy  EATOM  =      2326.12541554
  Solvation  Ediel_sol  =         0.00000000
  ---------------------------------------------------
  free energy    TOTEN  =       -46.72323613 eV

  energy without entropy =      -46.72323613  energy(sigma->0) =      -46.72323613


--------------------------------------------------------------------------------------------------------




--------------------------------------- Iteration      1(   9)  ---------------------------------------


    POTLOK:  cpu time      0.0524: real time      0.0524
    CMBJ_AVG_PW =    1.2196

    VACRAT =    0.0000

      1 CMBJ_AUG(I) =    1.2194

      2 CMBJ_AUG(I) =    1.2197

    SETDIJ:  cpu time      0.0180: real time      0.0180
     EDDAV:  cpu time      7.4615: real time      7.4691
       DOS:  cpu time      0.0006: real time      0.0006
    CHARGE:  cpu time      1.7219: real time      1.7232
    MIXING:  cpu time      0.0009: real time      0.0009
    --------------------------------------------
      LOOP:  cpu time      9.2552: real time      9.2642

 eigenvalue-minimisations  :  9456
 total energy-change (2. order) : 0.1291669E+00  (-0.5398008E-02)
 number of electron      18.0000012 magnetization      -0.0000000     -0.0000000      0.0000000
 augmentation part        7.7367739 magnetization      -0.0000000     -0.0000000      0.0000000

 Broyden mixing:
  rms(total) = 0.54198E-01    rms(broyden)= 0.54197E-01
  rms(prec ) = 0.80794E-01
  weight for this iteration     100.00

 eigenvalues of (default mixing * dielectric matrix)
  average eigenvalue GAMMA=   1.6188
  3.6695  1.0496  1.0496  0.7065

 Free energy of the ion-electron system (eV)
  ---------------------------------------------------
  alpha Z        PSCENC =        58.48741906
  Ewald energy   TEWEN  =     -1275.79203374
  -Hartree energ DENC   =      -721.92384197
  -exchange      EXHF   =         0.00000000
  -V(xc)+E(xc)   XCENC  =       159.76212251
  PAW double counting   =      1973.86547510    -2453.39817328
  entropy T*S    EENTRO =        -0.00000000
  eigenvalues    EBANDS =      -113.72045245
  atomic energy  EATOM  =      2326.12541554
  Solvation  Ediel_sol  =         0.00000000
  ---------------------------------------------------
  free energy    TOTEN  =       -46.59406923 eV

  energy without entropy =      -46.59406923  energy(sigma->0) =      -46.59406923


--------------------------------------------------------------------------------------------------------




--------------------------------------- Iteration      1(  10)  ---------------------------------------


    POTLOK:  cpu time      0.0513: real time      0.0514
    CMBJ_AVG_PW =    1.2332

    VACRAT =    0.0000

      1 CMBJ_AUG(I) =    1.2331

      2 CMBJ_AUG(I) =    1.2334

    SETDIJ:  cpu time      0.0179: real time      0.0179
     EDDAV:  cpu time      7.6573: real time      7.6638
       DOS:  cpu time      0.0005: real time      0.0005



 total charge

# of ion       s       p       d       tot
------------------------------------------
    1        0.767   0.704  10.006  11.477
    2        1.217   1.704   0.037   2.959
--------------------------------------------------
tot          1.984   2.408  10.044  14.436



 magnetization (x)

# of ion       s       p       d       tot
------------------------------------------
    1       -0.001   0.001  -0.000  -0.000
    2        0.000  -0.001  -0.000  -0.000
--------------------------------------------------
tot         -0.001   0.000  -0.000  -0.001



 magnetization (y)

# of ion       s       p       d       tot
------------------------------------------
    1        0.000  -0.000   0.000   0.000
    2       -0.000   0.000  -0.000   0.000
--------------------------------------------------
tot          0.000   0.000   0.000   0.000



 magnetization (z)

# of ion       s       p       d       tot
------------------------------------------
    1       -0.000   0.000  -0.000  -0.000
    2        0.000  -0.000   0.000  -0.000
--------------------------------------------------
tot         -0.000   0.000  -0.000  -0.000

    CHARGE:  cpu time      1.7281: real time      1.7293
    MIXING:  cpu time      0.0014: real time      0.0014
    --------------------------------------------
      LOOP:  cpu time      9.4566: real time      9.4643

 eigenvalue-minimisations  : 10192
 total energy-change (2. order) : 0.1719257E+00  (-0.2039755E-02)
 number of electron      18.0000012 magnetization       0.0000000     -0.0000000     -0.0000000
 augmentation part        7.7500193 magnetization       0.0000000     -0.0000000     -0.0000000

 Broyden mixing:
  rms(total) = 0.16762E-01    rms(broyden)= 0.16761E-01
  rms(prec ) = 0.51820E-01
  weight for this iteration     100.00

 eigenvalues of (default mixing * dielectric matrix)
  average eigenvalue GAMMA=   1.6150
  3.5721  1.9781  0.8354  0.8448  0.8448

 Free energy of the ion-electron system (eV)
  ---------------------------------------------------
  alpha Z        PSCENC =        58.48741906
  Ewald energy   TEWEN  =     -1275.79203374
  -Hartree energ DENC   =      -721.17405574
  -exchange      EXHF   =         0.00000000
  -V(xc)+E(xc)   XCENC  =       161.97965565
  PAW double counting   =      1989.07003111    -2471.07051873
  entropy T*S    EENTRO =        -0.00000000
  eigenvalues    EBANDS =      -114.04805665
  atomic energy  EATOM  =      2326.12541554
  Solvation  Ediel_sol  =         0.00000000
  ---------------------------------------------------
  free energy    TOTEN  =       -46.42214350 eV

  energy without entropy =      -46.42214350  energy(sigma->0) =      -46.42214350


--------------------------------------------------------------------------------------------------------




--------------------------------------- Iteration      1(  11)  ---------------------------------------


    POTLOK:  cpu time      0.0558: real time      0.0558
    CMBJ_AVG_PW =    1.2305

    VACRAT =    0.0000

      1 CMBJ_AUG(I) =    1.2304

      2 CMBJ_AUG(I) =    1.2307

    SETDIJ:  cpu time      0.0181: real time      0.0181
     EDDAV:  cpu time      7.6430: real time      7.6511
       DOS:  cpu time      0.0006: real time      0.0006
    CHARGE:  cpu time      1.7140: real time      1.7154
    MIXING:  cpu time      0.0009: real time      0.0009
    --------------------------------------------
      LOOP:  cpu time      9.4323: real time      9.4419

 eigenvalue-minimisations  :  9776
 total energy-change (2. order) :-0.4303495E-01  (-0.7912360E-03)
 number of electron      18.0000012 magnetization       0.0000000      0.0000000     -0.0000000
 augmentation part        7.7561802 magnetization       0.0000000      0.0000000     -0.0000000

 Broyden mixing:
  rms(total) = 0.27347E-01    rms(broyden)= 0.27347E-01
  rms(prec ) = 0.32962E-01
  weight for this iteration     100.00

 eigenvalues of (default mixing * dielectric matrix)
  average eigenvalue GAMMA=   1.6432
  3.8258  2.5543  1.0383  1.0383  0.8922  0.5102

 Free energy of the ion-electron system (eV)
  ---------------------------------------------------
  alpha Z        PSCENC =        58.48741906
  Ewald energy   TEWEN  =     -1275.79203374
  -Hartree energ DENC   =      -720.65854479
[...]
  0.000   0.000   0.022  -0.000   0.000  -0.000   0.000  -0.000  -0.000   0.000  -0.000  -0.000  -0.028   0.000  -0.000   0.000
 total augmentation occupancy for first ion, spin component:           1
  1.973  -0.000  -0.000  -0.000   0.000  -0.020   0.000   0.000  -0.000  -0.000   0.000   0.000  -0.000   0.042  -0.000  -0.000
 -0.000   1.973   0.000   0.000   0.000   0.000  -0.020   0.000  -0.000   0.000  -0.000   0.000   0.000  -0.000   0.042   0.000
 -0.000   0.000   1.967  -0.000   0.000   0.000   0.000  -0.035   0.000  -0.000   0.000  -0.000  -0.000  -0.000   0.000  -0.000
 -0.000   0.000  -0.000   1.973  -0.000   0.000  -0.000   0.000  -0.020   0.000  -0.000   0.000   0.042   0.000   0.000   0.000
  0.000   0.000   0.000  -0.000   1.967  -0.000   0.000  -0.000   0.000  -0.035   0.000   0.000  -0.000   0.000   0.000  -0.000
 -0.020   0.000   0.000  -0.000  -0.000   0.053  -0.000  -0.000  -0.000  -0.000  -0.000  -0.000  -0.000   0.164  -0.000  -0.000
  0.000  -0.020   0.000  -0.000   0.000  -0.000   0.053   0.000   0.000   0.000   0.000   0.000   0.000  -0.000   0.164   0.000
  0.000   0.000  -0.035   0.000  -0.000  -0.000   0.000   0.014  -0.000   0.000   0.000   0.000  -0.000  -0.000   0.000   0.000
  0.000  -0.000   0.000  -0.020   0.000  -0.000   0.000  -0.000   0.053  -0.000   0.000   0.000   0.164   0.000   0.000   0.000
  0.000   0.000  -0.000   0.000  -0.035  -0.000   0.000   0.000  -0.000   0.014   0.000  -0.000  -0.000  -0.000   0.000  -0.000
  0.000  -0.000   0.000  -0.000   0.000  -0.000  -0.000   0.000   0.000  -0.000   1.275   0.003   0.000   0.000   0.000   0.000
 -0.000   0.000  -0.000   0.000  -0.000  -0.000   0.000   0.000   0.000  -0.000   0.003   0.000   0.000   0.000  -0.000  -0.000
 -0.000   0.000  -0.000   0.042  -0.000  -0.000   0.000  -0.000   0.164  -0.000   0.000  -0.000   0.807  -0.000   0.000  -0.000
  0.042  -0.000  -0.000   0.000   0.000   0.164  -0.000  -0.000   0.000  -0.000  -0.000   0.000  -0.000   0.807  -0.000  -0.000
 -0.000   0.042   0.000   0.000   0.000  -0.000   0.164   0.000   0.000   0.000  -0.000  -0.000   0.000  -0.000   0.807   0.000
 -0.000   0.000  -0.000   0.000  -0.000  -0.000   0.000  -0.000   0.000  -0.000   0.000  -0.000  -0.000  -0.000   0.000   0.000
  0.000  -0.000  -0.000   0.000  -0.000   0.000   0.000  -0.000   0.000  -0.000   0.000  -0.000  -0.000  -0.000  -0.000   0.000
 -0.000   0.000   0.000   0.000   0.000  -0.000   0.000   0.000   0.000   0.000   0.000  -0.000   0.000  -0.000  -0.000   0.000
 total augmentation occupancy for first ion, spin component:           2
  0.000  -0.000   0.000   0.000   0.000  -0.000  -0.000  -0.000  -0.000  -0.000   0.000  -0.000   0.000   0.000  -0.000   0.000
 -0.000  -0.000   0.000  -0.000   0.000   0.000  -0.000   0.000  -0.000   0.000  -0.000  -0.000   0.000   0.000  -0.000   0.000
  0.000   0.000  -0.000   0.000  -0.000   0.000   0.000  -0.000  -0.000   0.000   0.000  -0.000  -0.000  -0.000  -0.000   0.000
 -0.000  -0.000   0.000  -0.000  -0.000   0.000  -0.000   0.000  -0.000  -0.000  -0.000  -0.000  -0.000  -0.000  -0.000   0.000
 -0.000   0.000  -0.000   0.000   0.000  -0.000   0.000  -0.000   0.000  -0.000   0.000   0.000   0.000  -0.000  -0.000   0.000
  0.000  -0.000  -0.000   0.000  -0.000  -0.000  -0.000  -0.000  -0.000  -0.000   0.000  -0.000  -0.000   0.000  -0.000   0.000
  0.000  -0.000   0.000  -0.000   0.000   0.000   0.000  -0.000   0.000  -0.000   0.000  -0.000  -0.000   0.000   0.000   0.000
  0.000   0.000  -0.000   0.000   0.000   0.000  -0.000  -0.000   0.000  -0.000   0.000  -0.000  -0.000   0.000   0.000   0.000
 -0.000  -0.000   0.000  -0.000  -0.000   0.000   0.000   0.000  -0.000  -0.000  -0.000  -0.000   0.000   0.000  -0.000  -0.000
 -0.000   0.000  -0.000  -0.000  -0.000  -0.000  -0.000  -0.000  -0.000  -0.000   0.000   0.000   0.000   0.000   0.000   0.000
  0.000   0.000  -0.000   0.000  -0.000   0.000  -0.000   0.000   0.000   0.000   0.000   0.000  -0.000  -0.000   0.000   0.000
 -0.000   0.000  -0.000  -0.000  -0.000  -0.000   0.000  -0.000  -0.000   0.000   0.000   0.000   0.000  -0.000   0.000  -0.000
  0.000  -0.000  -0.000  -0.000   0.000  -0.000  -0.000  -0.000   0.000   0.000  -0.000  -0.000  -0.000  -0.000   0.000   0.000
  0.000   0.000  -0.000  -0.000  -0.000   0.000   0.000   0.000   0.000  -0.000  -0.000  -0.000   0.000  -0.000  -0.000  -0.000
 -0.000  -0.000  -0.000  -0.000  -0.000  -0.000   0.000   0.000   0.000   0.000   0.000   0.000  -0.000  -0.000   0.000  -0.000
  0.000   0.000   0.000   0.000   0.000   0.000   0.000   0.000  -0.000   0.000   0.000   0.000  -0.000  -0.000  -0.000  -0.000
  0.000  -0.000   0.000  -0.000   0.000  -0.000   0.000   0.000  -0.000  -0.000   0.000   0.000   0.000   0.000   0.000  -0.000
  0.000   0.000   0.000  -0.000   0.000   0.000   0.000  -0.000   0.000  -0.000   0.000   0.000   0.000   0.000   0.000  -0.000
 total augmentation occupancy for first ion, spin component:           3
 -0.000  -0.000  -0.000   0.000  -0.000  -0.000   0.000  -0.000   0.000  -0.000  -0.000   0.000   0.000  -0.000  -0.000  -0.000
  0.000   0.000  -0.000  -0.000  -0.000  -0.000   0.000  -0.000   0.000  -0.000   0.000  -0.000  -0.000   0.000   0.000  -0.000
 -0.000   0.000  -0.000  -0.000   0.000  -0.000  -0.000  -0.000  -0.000   0.000   0.000  -0.000   0.000  -0.000   0.000  -0.000
  0.000  -0.000  -0.000   0.000   0.000   0.000   0.000  -0.000   0.000   0.000   0.000   0.000  -0.000  -0.000   0.000  -0.000
 -0.000   0.000   0.000   0.000   0.000  -0.000   0.000   0.000   0.000  -0.000   0.000   0.000  -0.000  -0.000   0.000   0.000
  0.000  -0.000  -0.000   0.000  -0.000   0.000   0.000  -0.000   0.000  -0.000   0.000   0.000   0.000  -0.000   0.000  -0.000
  0.000  -0.000  -0.000   0.000  -0.000  -0.000  -0.000  -0.000   0.000  -0.000  -0.000   0.000  -0.000  -0.000   0.000   0.000
 -0.000  -0.000   0.000  -0.000   0.000  -0.000  -0.000   0.000   0.000   0.000  -0.000  -0.000  -0.000   0.000   0.000   0.000
 -0.000  -0.000  -0.000   0.000   0.000  -0.000  -0.000   0.000   0.000  -0.000  -0.000  -0.000   0.000  -0.000   0.000   0.000
 -0.000  -0.000  -0.000   0.000   0.000  -0.000  -0.000  -0.000  -0.000   0.000   0.000  -0.000   0.000   0.000   0.000  -0.000
 -0.000   0.000   0.000   0.000  -0.000  -0.000   0.000   0.000   0.000   0.000  -0.000   0.000   0.000  -0.000   0.000   0.000
  0.000   0.000  -0.000   0.000   0.000   0.000   0.000   0.000   0.000  -0.000  -0.000  -0.000   0.000   0.000   0.000   0.000
  0.000   0.000   0.000   0.000  -0.000  -0.000   0.000  -0.000   0.000   0.000   0.000   0.000   0.000  -0.000   0.000   0.000
 -0.000   0.000   0.000  -0.000  -0.000  -0.000  -0.000   0.000  -0.000   0.000  -0.000  -0.000   0.000  -0.000  -0.000  -0.000
 -0.000   0.000  -0.000  -0.000  -0.000   0.000   0.000   0.000  -0.000  -0.000   0.000   0.000   0.000   0.000   0.000  -0.000
 -0.000  -0.000  -0.000   0.000   0.000  -0.000  -0.000   0.000  -0.000  -0.000   0.000   0.000  -0.000  -0.000  -0.000   0.000
  0.000   0.000  -0.000   0.000  -0.000  -0.000   0.000  -0.000  -0.000   0.000  -0.000   0.000  -0.000   0.000  -0.000   0.000
 -0.000  -0.000  -0.000   0.000  -0.000  -0.000  -0.000  -0.000  -0.000   0.000   0.000   0.000   0.000   0.000  -0.000   0.000
 total augmentation occupancy for first ion, spin component:           4
  0.000   0.000  -0.000   0.000  -0.000  -0.000   0.000   0.000   0.000  -0.000   0.000   0.000   0.000   0.000  -0.000  -0.000
  0.000   0.000  -0.000  -0.000  -0.000   0.000  -0.000   0.000   0.000  -0.000  -0.000   0.000  -0.000   0.000   0.000  -0.000
 -0.000  -0.000   0.000   0.000  -0.000  -0.000  -0.000  -0.000   0.000  -0.000   0.000   0.000   0.000  -0.000   0.000   0.000
  0.000   0.000  -0.000   0.000   0.000  -0.000  -0.000   0.000   0.000   0.000   0.000   0.000  -0.000   0.000   0.000  -0.000
 -0.000   0.000  -0.000   0.000   0.000  -0.000   0.000  -0.000   0.000   0.000  -0.000   0.000   0.000   0.000   0.000  -0.000
 -0.000   0.000   0.000   0.000  -0.000  -0.000   0.000  -0.000  -0.000   0.000   0.000   0.000   0.000  -0.000   0.000  -0.000
  0.000  -0.000  -0.000  -0.000   0.000   0.000  -0.000   0.000   0.000   0.000  -0.000   0.000   0.000   0.000   0.000  -0.000
  0.000   0.000  -0.000   0.000  -0.000   0.000   0.000  -0.000   0.000  -0.000   0.000  -0.000  -0.000  -0.000  -0.000   0.000
  0.000   0.000   0.000   0.000  -0.000  -0.000  -0.000   0.000   0.000  -0.000   0.000   0.000  -0.000  -0.000  -0.000   0.000
 -0.000  -0.000  -0.000   0.000   0.000   0.000   0.000  -0.000   0.000   0.000  -0.000   0.000   0.000  -0.000   0.000   0.000
  0.000  -0.000  -0.000   0.000  -0.000   0.000  -0.000  -0.000   0.000   0.000  -0.000   0.000  -0.000   0.000   0.000  -0.000
  0.000   0.000  -0.000   0.000   0.000   0.000   0.000  -0.000   0.000  -0.000   0.000   0.000   0.000   0.000   0.000   0.000
  0.000  -0.000   0.000   0.000   0.000   0.000   0.000  -0.000  -0.000   0.000   0.000  -0.000  -0.000   0.000   0.000   0.000
  0.000   0.000   0.000   0.000   0.000  -0.000  -0.000   0.000   0.000  -0.000   0.000   0.000   0.000  -0.000   0.000  -0.000
  0.000   0.000   0.000   0.000   0.000   0.000   0.000  -0.000  -0.000  -0.000   0.000   0.000  -0.000   0.000   0.000   0.000
 -0.000  -0.000  -0.000   0.000  -0.000  -0.000  -0.000   0.000   0.000   0.000   0.000   0.000   0.000  -0.000   0.000  -0.000
  0.000  -0.000   0.000   0.000  -0.000   0.000  -0.000   0.000  -0.000   0.000   0.000   0.000  -0.000   0.000  -0.000  -0.000
 -0.000   0.000  -0.000   0.000  -0.000   0.000  -0.000  -0.000   0.000   0.000   0.000  -0.000  -0.000   0.000  -0.000   0.000


------------------------ aborting loop because EDIFF is reached ----------------------------------------





 total charge

# of ion       s       p       d       tot
------------------------------------------
    1        0.764   0.701  10.006  11.471
    2        1.220   1.711   0.038   2.968
--------------------------------------------------
tot          1.984   2.412  10.044  14.439



 magnetization (x)

# of ion       s       p       d       tot
------------------------------------------
    1        0.000   0.000   0.000   0.000
    2        0.000  -0.000   0.000  -0.000
--------------------------------------------------
tot          0.000   0.000   0.000   0.000



 magnetization (y)

# of ion       s       p       d       tot
------------------------------------------
    1        0.000   0.000   0.000   0.000
    2        0.000  -0.000   0.000  -0.000
--------------------------------------------------
tot          0.000  -0.000   0.000  -0.000



 magnetization (z)

# of ion       s       p       d       tot
------------------------------------------
    1        0.000  -0.000   0.000   0.000
    2       -0.000   0.000   0.000   0.000
--------------------------------------------------
tot          0.000  -0.000   0.000   0.000

    CHARGE:  cpu time      0.1632: real time      0.1633
    FORLOC:  cpu time      0.0005: real time      0.0005
    FORNL :  cpu time      0.0993: real time      0.0993
    STRESS:  cpu time      0.7211: real time      0.7217
    FORCOR:  cpu time      0.0311: real time      0.0311
    FORHAR:  cpu time      0.0020: real time      0.0020
    MIXING:  cpu time      0.0021: real time      0.0021
    OFIELD:  cpu time      0.0000: real time      0.0000

  FORCE on cell =-STRESS in cart. coord.  units (eV):
  Direction    XX          YY          ZZ          XY          YZ          ZX
  --------------------------------------------------------------------------------------
  Alpha Z    58.48742    58.48742    58.48742
  Ewald    -425.26415  -425.26415  -425.26415    -0.00000    -0.00000     0.00000
  Hartree   240.29644   240.29644   240.29644     0.00000     0.00000     0.00000
  E(xc)    -222.71802  -222.71802  -222.71802     0.00034     0.00034     0.00034
  Local     -59.16114   -59.16114   -59.16114     0.00003     0.00003     0.00003
  n-local    49.03460    45.23082    48.13750    -0.78641     0.30314     1.28301
  augment   164.41749   164.41749   164.41749     0.00036     0.00036     0.00036
  Kinetic   111.43779   107.50789   112.37375    -1.54042     1.30593     3.92058
  Fock        0.00000     0.00000     0.00000     0.00000     0.00000     0.00000
  -------------------------------------------------------------------------------------
  Total     -86.03452   -86.03452   -86.03452    -0.00000    -0.00000     0.00000
  in kB   -3126.21824 -3126.21824 -3126.21824    -0.00000    -0.00000     0.00000
  external pressure =    -3126.22 kB  Pullay stress =        0.00 kB


 VOLUME and BASIS-vectors are now :
 -----------------------------------------------------------------------------
  energy-cutoff  :      500.00
  volume of cell :       44.09
      direct lattice vectors                 reciprocal lattice vectors
     2.804000000  2.804000000  0.000000000     0.178316690  0.178316690 -0.178316690
     0.000000000  2.804000000  2.804000000    -0.178316690  0.178316690  0.178316690
     2.804000000  0.000000000  2.804000000     0.178316690 -0.178316690  0.178316690

  length of vectors
     3.965454829  3.965454829  3.965454829     0.308853568  0.308853568  0.308853568


 FORCES acting on ions
    electron-ion (+dipol)            ewald-force                    non-local-force                 convergence-correction
 -----------------------------------------------------------------------------------------------
   0.657E-04 0.657E-04 0.657E-04   -.309E-14 0.156E-14 -.127E-13   -.227E-16 0.330E-16 0.744E-16   -.191E-10 -.190E-10 -.190E-10
   0.415E-04 0.415E-04 0.415E-04   0.789E-15 0.179E-15 0.132E-13   -.169E-16 -.139E-16 0.387E-17   0.624E-11 0.625E-11 0.622E-11
 -----------------------------------------------------------------------------------------------
   0.107E-03 0.107E-03 0.107E-03   -.230E-14 0.173E-14 0.449E-15   -.397E-16 0.191E-16 0.783E-16   -.129E-10 -.128E-10 -.128E-10


 POSITION                                       TOTAL-FORCE (eV/Angst)
 -----------------------------------------------------------------------------------
      0.00000      0.00000      0.00000         0.000000      0.000000      0.000000
      1.40200      1.40200      1.40200        -0.000000     -0.000000     -0.000000
 -----------------------------------------------------------------------------------
    total drift:                                0.000107      0.000107      0.000107


--------------------------------------------------------------------------------------------------------



  FREE ENERGIE OF THE ION-ELECTRON SYSTEM (eV)
  ---------------------------------------------------
  free  energy   TOTEN  =       -46.40974728 eV

  energy  without entropy=      -46.40974728  energy(sigma->0) =      -46.40974728



--------------------------------------------------------------------------------------------------------


    CMBJ_AVG_PW =    1.2312

    VACRAT =    0.0000

      1 CMBJ_AUG(I) =    1.2311

      2 CMBJ_AUG(I) =    1.2314

    POTLOK:  cpu time      0.0673: real time      0.0674


--------------------------------------------------------------------------------------------------------


 writing wavefunctions
     LOOP+:  cpu time    246.4195: real time    246.7598
    4ORBIT:  cpu time      0.0000: real time      0.0000

 Spin-Orbit-Coupling matrix elements

 Ion:    1  E_soc:     -0.0114045
 l=   1
     0.0000000    -0.0011069    -0.0011069
    -0.0011069     0.0000000    -0.0011069
    -0.0011069    -0.0011069     0.0000000
 l=   2
     0.0000000    -0.0001590     0.0000000    -0.0001590    -0.0006348
    -0.0001590     0.0000000    -0.0004761    -0.0001590    -0.0001587
     0.0000000    -0.0004761     0.0000000    -0.0004761     0.0000000
    -0.0001590    -0.0001590    -0.0004761     0.0000000    -0.0001587
    -0.0006348    -0.0001587     0.0000000    -0.0001587     0.0000000
 l=   3
     0.0000000     0.0000000     0.0000000     0.0000000     0.0000000     0.0000000     0.0000000
     0.0000000     0.0000000     0.0000000     0.0000000     0.0000000     0.0000000     0.0000000
     0.0000000     0.0000000     0.0000000     0.0000000     0.0000000     0.0000000     0.0000000
     0.0000000     0.0000000     0.0000000     0.0000000     0.0000000     0.0000000     0.0000000
     0.0000000     0.0000000     0.0000000     0.0000000     0.0000000     0.0000000     0.0000000
     0.0000000     0.0000000     0.0000000     0.0000000     0.0000000     0.0000000     0.0000000
     0.0000000     0.0000000     0.0000000     0.0000000     0.0000000     0.0000000     0.0000000

 Ion:    2  E_soc:     -0.0225727
 l=   1
     0.0000000    -0.0037532    -0.0037532
    -0.0037532     0.0000000    -0.0037532
    -0.0037532    -0.0037532     0.0000000
 l=   2
     0.0000000    -0.0000047     0.0000000    -0.0000047    -0.0000042
    -0.0000047     0.0000000    -0.0000032    -0.0000047    -0.0000011
     0.0000000    -0.0000032     0.0000000    -0.0000032     0.0000000
    -0.0000047    -0.0000047    -0.0000032     0.0000000    -0.0000011
    -0.0000042    -0.0000011     0.0000000    -0.0000011     0.0000000
 l=   3
     0.0000000     0.0000000     0.0000000     0.0000000     0.0000000     0.0000000     0.0000000
     0.0000000     0.0000000     0.0000000     0.0000000     0.0000000     0.0000000     0.0000000
     0.0000000     0.0000000     0.0000000     0.0000000     0.0000000     0.0000000     0.0000000
     0.0000000     0.0000000     0.0000000     0.0000000     0.0000000     0.0000000     0.0000000
     0.0000000     0.0000000     0.0000000     0.0000000     0.0000000     0.0000000     0.0000000
     0.0000000     0.0000000     0.0000000     0.0000000     0.0000000     0.0000000     0.0000000
     0.0000000     0.0000000     0.0000000     0.0000000     0.0000000     0.0000000     0.0000000



 total charge

# of ion       s       p       d       tot
------------------------------------------
    1        0.764   0.701  10.006  11.471
    2        1.220   1.711   0.038   2.968
--------------------------------------------------
tot          1.984   2.412  10.044  14.439



 magnetization (x)

# of ion       s       p       d       tot
------------------------------------------
    1        0.000   0.000   0.000   0.000
    2        0.000  -0.000   0.000  -0.000
--------------------------------------------------
tot          0.000   0.000   0.000   0.000



 magnetization (y)

# of ion       s       p       d       tot
------------------------------------------
    1        0.000   0.000   0.000   0.000
    2        0.000  -0.000   0.000  -0.000
--------------------------------------------------
tot          0.000  -0.000   0.000  -0.000



 magnetization (z)

# of ion       s       p       d       tot
------------------------------------------
    1        0.000  -0.000   0.000   0.000
    2       -0.000   0.000   0.000   0.000
--------------------------------------------------
tot          0.000  -0.000   0.000   0.000


 total amount of memory used by VASP MPI-rank0    88159. kBytes
=======================================================================

   base      :      30000. kBytes
   nonl-proj :      38522. kBytes
   fftplans  :       1162. kBytes
   grid      :       9561. kBytes
   one-center:        124. kBytes
   wavefun   :       8790. kBytes

  
  
 General timing and accounting informations for this job:
 ========================================================
  
                  Total CPU time used (sec):      249.237
                            User time (sec):      245.928
                          System time (sec):        3.309
                         Elapsed time (sec):      249.775
  
                   Maximum memory used (kb):      146820.
                   Average memory used (kb):          N/A
  
                          Minor page faults:       104174
                          Major page faults:           77
                 Voluntary context switches:         3728
